<?xml version="1.0" encoding="UTF-8"?>

<!-- generated on 2023-12-19 01:51:31 by Eclipse SUMO sumo Version 1.19.0
<configuration xmlns:xsi="http://www.w3.org/2001/XMLSchema-instance" xsi:noNamespaceSchemaLocation="http://sumo.dlr.de/xsd/sumoConfiguration.xsd">

    <input>
        <net-file value="sumo/simulation.net.xml"/>
        <route-files value="sumo/osm.passenger.trips.xml"/>
        <additional-files value="sumo/osm.poly.xml.gz"/>
    </input>

    <output>
        <tripinfo-output value="sumo/simulation_tripinfo.xml"/>
    </output>

    <processing>
        <ignore-route-errors value="true"/>
    </processing>

    <routing>
        <device.rerouting.adaptation-steps value="18"/>
        <device.rerouting.adaptation-interval value="10"/>
    </routing>

    <report>
        <verbose value="true"/>
        <no-warnings value="true"/>
        <duration-log.statistics value="true"/>
        <no-step-log value="true"/>
    </report>

    <traci_server>
        <remote-port value="55754"/>
    </traci_server>

    <gui_only>
        <gui-settings-file value="sumo/osm.view.xml"/>
    </gui_only>

</configuration>
-->

<tripinfos xmlns:xsi="http://www.w3.org/2001/XMLSchema-instance" xsi:noNamespaceSchemaLocation="http://sumo.dlr.de/xsd/tripinfo_file.xsd">
    <tripinfo id="veh18" depart="22.00" departLane="45090429#5_1" departPos="5.10" departSpeed="0.00" departDelay="0.02" arrival="157.00" arrivalLane="304618246#3_0" arrivalPos="28.29" arrivalSpeed="12.27" duration="135.00" routeLength="602.95" waitingTime="57.00" waitingCount="3" stopTime="0.00" timeLoss="89.56" rerouteNo="1" devices="tripinfo_veh18 routing_veh18" vType="veh_passenger" speedFactor="0.88" vaporized=""/>
    <tripinfo id="veh5" depart="7.00" departLane="-168728317#1_0" departPos="5.10" departSpeed="14.31" departDelay="0.89" arrival="172.00" arrivalLane="132400906#1_0" arrivalPos="93.45" arrivalSpeed="22.14" duration="165.00" routeLength="1260.62" waitingTime="65.00" waitingCount="4" stopTime="0.00" timeLoss="111.35" rerouteNo="1" devices="tripinfo_veh5 routing_veh5" vType="veh_passenger" speedFactor="1.03" vaporized=""/>
    <tripinfo id="veh90" depart="110.00" departLane="17227712#0_0" departPos="5.10" departSpeed="13.56" departDelay="0.08" arrival="205.00" arrivalLane="52095236#4_0" arrivalPos="179.42" arrivalSpeed="21.63" duration="95.00" routeLength="894.60" waitingTime="28.00" waitingCount="1" stopTime="0.00" timeLoss="41.67" rerouteNo="1" devices="tripinfo_veh90 routing_veh90" vType="veh_passenger" speedFactor="0.98" vaporized=""/>
    <tripinfo id="veh101" depart="124.00" departLane="658581240#0_2" departPos="5.10" departSpeed="0.00" departDelay="0.64" arrival="218.00" arrivalLane="304618246#4_1" arrivalPos="31.83" arrivalSpeed="13.36" duration="94.00" routeLength="483.12" waitingTime="31.00" waitingCount="2" stopTime="0.00" timeLoss="53.94" rerouteNo="1" devices="tripinfo_veh101 routing_veh101" vType="veh_passenger" speedFactor="1.01" vaporized=""/>
    <tripinfo id="veh55" depart="68.00" departLane="17205224#5_1" departPos="5.10" departSpeed="0.00" departDelay="0.83" arrival="330.00" arrivalLane="37051419#1_0" arrivalPos="136.07" arrivalSpeed="7.45" duration="262.00" routeLength="1020.55" waitingTime="159.00" waitingCount="4" stopTime="0.00" timeLoss="217.17" rerouteNo="1" devices="tripinfo_veh55 routing_veh55" vType="veh_passenger" speedFactor="1.17" vaporized=""/>
    <tripinfo id="veh29" depart="36.00" departLane="889425358#1_2" departPos="5.10" departSpeed="0.00" departDelay="0.58" arrival="338.00" arrivalLane="37051419#5_0" arrivalPos="52.06" arrivalSpeed="12.46" duration="302.00" routeLength="683.13" waitingTime="236.00" waitingCount="1" stopTime="0.00" timeLoss="257.45" rerouteNo="1" devices="tripinfo_veh29 routing_veh29" vType="veh_passenger" speedFactor="0.95" vaporized=""/>
    <tripinfo id="veh195" depart="239.00" departLane="-770925915#4_0" departPos="5.10" departSpeed="29.97" departDelay="0.84" arrival="338.00" arrivalLane="770925905#2_0" arrivalPos="103.31" arrivalSpeed="22.53" duration="99.00" routeLength="598.26" waitingTime="66.00" waitingCount="1" stopTime="0.00" timeLoss="77.97" rerouteNo="1" devices="tripinfo_veh195 routing_veh195" vType="veh_passenger" speedFactor="1.08" vaporized=""/>
    <tripinfo id="veh60" depart="74.00" departLane="-132400906#1_1" departPos="5.10" departSpeed="0.00" departDelay="0.72" arrival="340.00" arrivalLane="658581209#0_0" arrivalPos="5.61" arrivalSpeed="9.56" duration="266.00" routeLength="637.63" waitingTime="192.00" waitingCount="4" stopTime="0.00" timeLoss="229.57" rerouteNo="1" devices="tripinfo_veh60 routing_veh60" vType="veh_passenger" speedFactor="0.90" vaporized=""/>
    <tripinfo id="veh21" depart="26.00" departLane="-263453002#1_0" departPos="5.10" departSpeed="16.09" departDelay="0.35" arrival="348.00" arrivalLane="168728317#1_0" arrivalPos="202.17" arrivalSpeed="15.42" duration="322.00" routeLength="962.58" waitingTime="231.00" waitingCount="4" stopTime="0.00" timeLoss="272.85" rerouteNo="1" devices="tripinfo_veh21 routing_veh21" vType="veh_passenger" speedFactor="1.16" vaporized=""/>
    <tripinfo id="veh98" depart="120.00" departLane="186873193_1" departPos="5.10" departSpeed="0.00" departDelay="0.31" arrival="353.00" arrivalLane="23322421#1_0" arrivalPos="90.87" arrivalSpeed="22.61" duration="233.00" routeLength="442.08" waitingTime="171.00" waitingCount="3" stopTime="0.00" timeLoss="199.12" rerouteNo="1" devices="tripinfo_veh98 routing_veh98" vType="veh_passenger" speedFactor="0.92" vaporized=""/>
    <tripinfo id="veh49" depart="60.00" departLane="132400957#0_0" departPos="5.10" departSpeed="30.22" departDelay="0.15" arrival="374.00" arrivalLane="37051823#1_0" arrivalPos="249.05" arrivalSpeed="6.15" duration="314.00" routeLength="1044.54" waitingTime="238.00" waitingCount="4" stopTime="0.00" timeLoss="279.33" rerouteNo="1" devices="tripinfo_veh49 routing_veh49" vType="veh_passenger" speedFactor="1.09" vaporized=""/>
    <tripinfo id="veh148" depart="181.00" departLane="-17212141#2_0" departPos="5.10" departSpeed="0.00" departDelay="0.24" arrival="410.00" arrivalLane="658581240#0_0" arrivalPos="28.63" arrivalSpeed="12.00" duration="229.00" routeLength="428.18" waitingTime="181.00" waitingCount="2" stopTime="0.00" timeLoss="206.59" rerouteNo="1" devices="tripinfo_veh148 routing_veh148" vType="veh_passenger" speedFactor="1.16" vaporized=""/>
    <tripinfo id="veh97" depart="119.00" departLane="132400957#0_0" departPos="5.10" departSpeed="23.16" departDelay="0.53" arrival="415.00" arrivalLane="39362439#3_0" arrivalPos="23.73" arrivalSpeed="22.25" duration="296.00" routeLength="622.39" waitingTime="244.00" waitingCount="3" stopTime="0.00" timeLoss="263.41" rerouteNo="1" devices="tripinfo_veh97 routing_veh97" vType="veh_passenger" speedFactor="0.83" vaporized=""/>
    <tripinfo id="veh303" depart="371.00" departLane="17227712#0_0" departPos="5.10" departSpeed="15.33" departDelay="0.93" arrival="437.00" arrivalLane="52095236#1_0" arrivalPos="66.70" arrivalSpeed="19.26" duration="66.00" routeLength="677.79" waitingTime="13.00" waitingCount="1" stopTime="0.00" timeLoss="28.39" rerouteNo="1" devices="tripinfo_veh303 routing_veh303" vType="veh_passenger" speedFactor="1.10" vaporized=""/>
    <tripinfo id="veh102" depart="125.00" departLane="293638419#2_1" departPos="5.10" departSpeed="0.00" departDelay="0.42" arrival="442.00" arrivalLane="37138017#3_1" arrivalPos="107.59" arrivalSpeed="24.49" duration="317.00" routeLength="1079.39" waitingTime="220.00" waitingCount="4" stopTime="0.00" timeLoss="268.93" rerouteNo="1" devices="tripinfo_veh102 routing_veh102" vType="veh_passenger" speedFactor="0.91" vaporized=""/>
    <tripinfo id="veh227" depart="278.00" departLane="45050328_0" departPos="0.20" departSpeed="0.00" departDelay="0.75" arrival="454.00" arrivalLane="-45050329#5_0" arrivalPos="951.85" arrivalSpeed="26.15" duration="176.00" routeLength="1052.08" waitingTime="119.00" waitingCount="2" stopTime="0.00" timeLoss="136.67" rerouteNo="1" devices="tripinfo_veh227 routing_veh227" vType="veh_passenger" speedFactor="0.97" vaporized=""/>
    <tripinfo id="veh77" depart="95.00" departLane="132400907#2_0" departPos="5.10" departSpeed="0.00" departDelay="0.96" arrival="458.00" arrivalLane="37052278_0" arrivalPos="130.64" arrivalSpeed="24.99" duration="363.00" routeLength="748.31" waitingTime="283.00" waitingCount="4" stopTime="0.00" timeLoss="327.61" rerouteNo="1" devices="tripinfo_veh77 routing_veh77" vType="veh_passenger" speedFactor="1.06" vaporized=""/>
    <tripinfo id="veh213" depart="261.00" departLane="37114305#6_0" departPos="5.10" departSpeed="0.00" departDelay="0.85" arrival="469.00" arrivalLane="-181116504#2_0" arrivalPos="23.04" arrivalSpeed="9.90" duration="208.00" routeLength="854.05" waitingTime="122.00" waitingCount="3" stopTime="0.00" timeLoss="176.80" rerouteNo="1" devices="tripinfo_veh213 routing_veh213" vType="veh_passenger" speedFactor="1.11" vaporized=""/>
    <tripinfo id="veh40" depart="49.00" departLane="987561406#0_0" departPos="5.10" departSpeed="0.00" departDelay="0.15" arrival="489.00" arrivalLane="28866897#1_0" arrivalPos="17.46" arrivalSpeed="10.41" duration="440.00" routeLength="726.16" waitingTime="353.00" waitingCount="5" stopTime="0.00" timeLoss="398.00" rerouteNo="1" devices="tripinfo_veh40 routing_veh40" vType="veh_passenger" speedFactor="0.97" vaporized=""/>
    <tripinfo id="veh142" depart="174.00" departLane="39362439#4_0" departPos="5.10" departSpeed="0.00" departDelay="0.57" arrival="498.00" arrivalLane="656618859#1_2" arrivalPos="107.93" arrivalSpeed="24.23" duration="324.00" routeLength="924.42" waitingTime="247.00" waitingCount="3" stopTime="0.00" timeLoss="287.99" rerouteNo="1" devices="tripinfo_veh142 routing_veh142" vType="veh_passenger" speedFactor="1.01" vaporized=""/>
    <tripinfo id="veh183" depart="224.00" departLane="-263453002#1_0" departPos="5.10" departSpeed="13.28" departDelay="0.49" arrival="530.00" arrivalLane="292256996#2_1" arrivalPos="24.49" arrivalSpeed="16.11" duration="306.00" routeLength="1079.95" waitingTime="202.00" waitingCount="3" stopTime="0.00" timeLoss="243.21" rerouteNo="1" devices="tripinfo_veh183 routing_veh183" vType="veh_passenger" speedFactor="0.96" vaporized=""/>
    <tripinfo id="veh11" depart="14.00" departLane="658581086#1_1" departPos="5.10" departSpeed="0.00" departDelay="0.57" arrival="532.00" arrivalLane="17218405#5_0" arrivalPos="4.25" arrivalSpeed="14.45" duration="518.00" routeLength="895.92" waitingTime="418.00" waitingCount="5" stopTime="0.00" timeLoss="476.51" rerouteNo="1" devices="tripinfo_veh11 routing_veh11" vType="veh_passenger" speedFactor="1.09" vaporized=""/>
    <tripinfo id="veh3" depart="4.00" departLane="17225655#0_0" departPos="5.10" departSpeed="28.07" departDelay="0.34" arrival="546.00" arrivalLane="-17212629#1_0" arrivalPos="67.19" arrivalSpeed="22.02" duration="542.00" routeLength="986.41" waitingTime="443.00" waitingCount="6" stopTime="0.00" timeLoss="503.88" rerouteNo="1" devices="tripinfo_veh3 routing_veh3" vType="veh_passenger" speedFactor="1.01" vaporized=""/>
    <tripinfo id="veh182" depart="223.00" departLane="39435491#0_0" departPos="5.10" departSpeed="25.38" departDelay="0.71" arrival="552.00" arrivalLane="1097215715#4_0" arrivalPos="366.97" arrivalSpeed="31.29" duration="329.00" routeLength="661.20" waitingTime="301.00" waitingCount="1" stopTime="0.00" timeLoss="306.49" rerouteNo="1" devices="tripinfo_veh182 routing_veh182" vType="veh_passenger" speedFactor="1.14" vaporized=""/>
    <tripinfo id="veh34" depart="42.00" departLane="37054455#2_0" departPos="5.10" departSpeed="0.00" departDelay="0.47" arrival="569.00" arrivalLane="17227246#1_1" arrivalPos="106.81" arrivalSpeed="23.43" duration="527.00" routeLength="914.23" waitingTime="428.00" waitingCount="6" stopTime="0.00" timeLoss="483.56" rerouteNo="1" devices="tripinfo_veh34 routing_veh34" vType="veh_passenger" speedFactor="1.01" vaporized=""/>
    <tripinfo id="veh0" depart="0.00" departLane="37051824#2_0" departPos="5.10" departSpeed="0.00" departDelay="0.00" arrival="574.00" arrivalLane="-17209803#3_0" arrivalPos="42.00" arrivalSpeed="15.27" duration="574.00" routeLength="811.90" waitingTime="491.00" waitingCount="6" stopTime="0.00" timeLoss="542.59" rerouteNo="1" devices="tripinfo_veh0 routing_veh0" vType="veh_passenger" speedFactor="1.06" vaporized=""/>
    <tripinfo id="veh25" depart="31.00" departLane="132400957#0_0" departPos="5.10" departSpeed="24.71" departDelay="0.47" arrival="575.00" arrivalLane="658581240#2_0" arrivalPos="25.26" arrivalSpeed="9.27" duration="544.00" routeLength="1707.41" waitingTime="401.00" waitingCount="7" stopTime="0.00" timeLoss="465.47" rerouteNo="1" devices="tripinfo_veh25 routing_veh25" vType="veh_passenger" speedFactor="0.89" vaporized=""/>
    <tripinfo id="veh4" depart="5.00" departLane="1106807198#1_1" departPos="5.10" departSpeed="0.00" departDelay="0.11" arrival="576.00" arrivalLane="271363702#1_0" arrivalPos="46.75" arrivalSpeed="16.99" duration="571.00" routeLength="611.92" waitingTime="509.00" waitingCount="3" stopTime="0.00" timeLoss="547.19" rerouteNo="1" devices="tripinfo_veh4 routing_veh4" vType="veh_passenger" speedFactor="1.08" vaporized=""/>
    <tripinfo id="veh279" depart="341.00" departLane="132400917#1_0" departPos="5.10" departSpeed="0.00" departDelay="0.24" arrival="581.00" arrivalLane="-39435612#0_0" arrivalPos="33.75" arrivalSpeed="21.65" duration="240.00" routeLength="393.45" waitingTime="196.00" waitingCount="3" stopTime="0.00" timeLoss="222.43" rerouteNo="1" devices="tripinfo_veh279 routing_veh279" vType="veh_passenger" speedFactor="0.98" vaporized=""/>
    <tripinfo id="veh428" depart="523.00" departLane="39606273#2_0" departPos="5.10" departSpeed="0.00" departDelay="0.26" arrival="602.00" arrivalLane="263453002#1_0" arrivalPos="178.72" arrivalSpeed="14.17" duration="79.00" routeLength="683.52" waitingTime="19.00" waitingCount="1" stopTime="0.00" timeLoss="43.14" rerouteNo="1" devices="tripinfo_veh428 routing_veh428" vType="veh_passenger" speedFactor="1.10" vaporized=""/>
    <tripinfo id="veh389" depart="476.00" departLane="45683096#1_0" departPos="5.10" departSpeed="0.00" departDelay="0.89" arrival="619.00" arrivalLane="23322421#1_0" arrivalPos="90.87" arrivalSpeed="24.05" duration="143.00" routeLength="652.28" waitingTime="71.00" waitingCount="2" stopTime="0.00" timeLoss="90.76" rerouteNo="1" devices="tripinfo_veh389 routing_veh389" vType="veh_passenger" speedFactor="1.01" vaporized=""/>
    <tripinfo id="veh374" depart="457.00" departLane="45683096#2_0" departPos="5.10" departSpeed="0.00" departDelay="0.21" arrival="621.00" arrivalLane="23322421#1_0" arrivalPos="90.87" arrivalSpeed="20.94" duration="164.00" routeLength="555.42" waitingTime="95.00" waitingCount="3" stopTime="0.00" timeLoss="117.55" rerouteNo="1" devices="tripinfo_veh374 routing_veh374" vType="veh_passenger" speedFactor="0.95" vaporized=""/>
    <tripinfo id="veh468" depart="572.00" departLane="-45050329#7_0" departPos="5.10" departSpeed="0.00" departDelay="0.41" arrival="621.00" arrivalLane="-45050329#5_0" arrivalPos="951.85" arrivalSpeed="23.98" duration="49.00" routeLength="1002.65" waitingTime="0.00" waitingCount="0" stopTime="0.00" timeLoss="7.31" rerouteNo="1" devices="tripinfo_veh468 routing_veh468" vType="veh_passenger" speedFactor="0.88" vaporized=""/>
    <tripinfo id="veh232" depart="284.00" departLane="39275905#11_0" departPos="5.10" departSpeed="0.00" departDelay="0.65" arrival="624.00" arrivalLane="17224420#4_0" arrivalPos="0.55" arrivalSpeed="15.03" duration="340.00" routeLength="895.58" waitingTime="252.00" waitingCount="4" stopTime="0.00" timeLoss="302.65" rerouteNo="1" devices="tripinfo_veh232 routing_veh232" vType="veh_passenger" speedFactor="1.15" vaporized=""/>
    <tripinfo id="veh145" depart="180.00" departLane="45204087#1_0" departPos="5.10" departSpeed="0.00" departDelay="2.90" arrival="635.00" arrivalLane="770925915#2_0" arrivalPos="413.22" arrivalSpeed="27.11" duration="455.00" routeLength="1598.79" waitingTime="320.00" waitingCount="7" stopTime="0.00" timeLoss="393.51" rerouteNo="1" devices="tripinfo_veh145 routing_veh145" vType="veh_passenger" speedFactor="1.00" vaporized=""/>
    <tripinfo id="veh418" depart="511.00" departLane="37054458#2_0" departPos="5.10" departSpeed="0.00" departDelay="0.48" arrival="636.00" arrivalLane="17205224#1_0" arrivalPos="25.96" arrivalSpeed="18.84" duration="125.00" routeLength="555.77" waitingTime="59.00" waitingCount="4" stopTime="0.00" timeLoss="102.21" rerouteNo="1" devices="tripinfo_veh418 routing_veh418" vType="veh_passenger" speedFactor="0.98" vaporized=""/>
    <tripinfo id="veh146" depart="179.00" departLane="39494751#1_0" departPos="5.10" departSpeed="0.00" departDelay="0.68" arrival="640.00" arrivalLane="656618858#1_0" arrivalPos="110.66" arrivalSpeed="23.62" duration="461.00" routeLength="591.87" waitingTime="410.00" waitingCount="3" stopTime="0.00" timeLoss="438.15" rerouteNo="1" devices="tripinfo_veh146 routing_veh146" vType="veh_passenger" speedFactor="0.95" vaporized=""/>
    <tripinfo id="veh108" depart="132.00" departLane="132400907#1_0" departPos="5.10" departSpeed="0.00" departDelay="0.09" arrival="648.00" arrivalLane="-39360681#0_0" arrivalPos="19.11" arrivalSpeed="16.78" duration="516.00" routeLength="614.92" waitingTime="437.00" waitingCount="4" stopTime="0.00" timeLoss="483.73" rerouteNo="1" devices="tripinfo_veh108 routing_veh108" vType="veh_passenger" speedFactor="0.95" vaporized=""/>
    <tripinfo id="veh135" depart="165.00" departLane="624163581#0_2" departPos="5.10" departSpeed="12.50" departDelay="0.12" arrival="674.00" arrivalLane="294561112#10_1" arrivalPos="28.84" arrivalSpeed="23.02" duration="509.00" routeLength="642.95" waitingTime="433.00" waitingCount="4" stopTime="0.00" timeLoss="474.86" rerouteNo="1" devices="tripinfo_veh135 routing_veh135" vType="veh_passenger" speedFactor="1.12" vaporized=""/>
    <tripinfo id="veh164" depart="201.00" departLane="132400922#1_0" departPos="5.10" departSpeed="0.00" departDelay="0.70" arrival="676.00" arrivalLane="37114310#2_0" arrivalPos="7.05" arrivalSpeed="18.48" duration="475.00" routeLength="615.11" waitingTime="402.00" waitingCount="4" stopTime="0.00" timeLoss="455.50" rerouteNo="1" devices="tripinfo_veh164 routing_veh164" vType="veh_passenger" speedFactor="1.18" vaporized=""/>
    <tripinfo id="veh16" depart="20.00" departLane="17219050#0_0" departPos="5.10" departSpeed="13.77" departDelay="0.46" arrival="679.00" arrivalLane="294561112#16_1" arrivalPos="20.38" arrivalSpeed="20.99" duration="659.00" routeLength="1295.28" waitingTime="523.00" waitingCount="7" stopTime="0.00" timeLoss="588.63" rerouteNo="1" devices="tripinfo_veh16 routing_veh16" vType="veh_passenger" speedFactor="0.99" vaporized=""/>
    <tripinfo id="veh69" depart="85.00" departLane="1047723751#2_0" departPos="5.10" departSpeed="0.00" departDelay="0.73" arrival="688.00" arrivalLane="17213444#3_2" arrivalPos="8.07" arrivalSpeed="20.32" duration="603.00" routeLength="1058.99" waitingTime="482.00" waitingCount="8" stopTime="0.00" timeLoss="548.39" rerouteNo="1" devices="tripinfo_veh69 routing_veh69" vType="veh_passenger" speedFactor="0.88" vaporized=""/>
    <tripinfo id="veh358" depart="438.00" departLane="168728401#1_0" departPos="5.10" departSpeed="0.00" departDelay="0.76" arrival="691.00" arrivalLane="39362439#7_0" arrivalPos="34.70" arrivalSpeed="8.43" duration="253.00" routeLength="491.00" waitingTime="199.00" waitingCount="3" stopTime="0.00" timeLoss="230.26" rerouteNo="1" devices="tripinfo_veh358 routing_veh358" vType="veh_passenger" speedFactor="0.95" vaporized=""/>
    <tripinfo id="veh111" depart="136.00" departLane="292256996#3_2" departPos="5.10" departSpeed="0.00" departDelay="0.43" arrival="693.00" arrivalLane="658581240#1_1" arrivalPos="13.95" arrivalSpeed="11.06" duration="557.00" routeLength="1182.59" waitingTime="443.00" waitingCount="6" stopTime="0.00" timeLoss="510.48" rerouteNo="1" devices="tripinfo_veh111 routing_veh111" vType="veh_passenger" speedFactor="1.07" vaporized=""/>
    <tripinfo id="veh171" depart="209.00" departLane="37136834#3_0" departPos="5.10" departSpeed="0.00" departDelay="0.15" arrival="694.00" arrivalLane="17212141#1_2" arrivalPos="13.03" arrivalSpeed="22.99" duration="485.00" routeLength="324.34" waitingTime="441.00" waitingCount="3" stopTime="0.00" timeLoss="472.85" rerouteNo="1" devices="tripinfo_veh171 routing_veh171" vType="veh_passenger" speedFactor="0.99" vaporized=""/>
    <tripinfo id="veh351" depart="429.00" departLane="216999484#1_0" departPos="0.70" departSpeed="0.00" departDelay="0.31" arrival="696.00" arrivalLane="-39276274#1_0" arrivalPos="281.66" arrivalSpeed="31.28" duration="267.00" routeLength="927.36" waitingTime="203.00" waitingCount="2" stopTime="0.00" timeLoss="226.69" rerouteNo="1" devices="tripinfo_veh351 routing_veh351" vType="veh_passenger" speedFactor="1.16" vaporized=""/>
    <tripinfo id="veh188" depart="230.00" departLane="132400907#5_0" departPos="5.10" departSpeed="0.00" departDelay="0.39" arrival="707.00" arrivalLane="249305448#5_0" arrivalPos="46.38" arrivalSpeed="28.89" duration="477.00" routeLength="602.13" waitingTime="413.00" waitingCount="4" stopTime="0.00" timeLoss="449.62" rerouteNo="1" devices="tripinfo_veh188 routing_veh188" vType="veh_passenger" speedFactor="1.06" vaporized=""/>
    <tripinfo id="veh275" depart="336.00" departLane="37114311#1_1" departPos="5.10" departSpeed="0.00" departDelay="0.13" arrival="715.00" arrivalLane="17212629#9_0" arrivalPos="68.37" arrivalSpeed="22.99" duration="379.00" routeLength="612.30" waitingTime="319.00" waitingCount="4" stopTime="0.00" timeLoss="352.72" rerouteNo="1" devices="tripinfo_veh275 routing_veh275" vType="veh_passenger" speedFactor="1.04" vaporized=""/>
    <tripinfo id="veh503" depart="615.00" departLane="37136834#3_0" departPos="5.10" departSpeed="0.00" departDelay="0.66" arrival="725.00" arrivalLane="770925909_0" arrivalPos="48.91" arrivalSpeed="16.84" duration="110.00" routeLength="665.03" waitingTime="38.00" waitingCount="2" stopTime="0.00" timeLoss="77.16" rerouteNo="1" devices="tripinfo_veh503 routing_veh503" vType="veh_passenger" speedFactor="1.04" vaporized=""/>
    <tripinfo id="veh363" depart="444.00" departLane="293638418#3_0" departPos="5.10" departSpeed="0.00" departDelay="0.65" arrival="729.00" arrivalLane="17218405#8_0" arrivalPos="284.68" arrivalSpeed="11.01" duration="285.00" routeLength="962.54" waitingTime="181.00" waitingCount="2" stopTime="0.00" timeLoss="207.21" rerouteNo="1" devices="tripinfo_veh363 routing_veh363" vType="veh_passenger" speedFactor="0.82" vaporized=""/>
    <tripinfo id="veh23" depart="29.00" departLane="-37051823#1_0" departPos="5.10" departSpeed="0.00" departDelay="0.91" arrival="737.00" arrivalLane="17221804#3_0" arrivalPos="261.55" arrivalSpeed="13.77" duration="708.00" routeLength="1380.32" waitingTime="578.00" waitingCount="6" stopTime="0.00" timeLoss="642.83" rerouteNo="1" devices="tripinfo_veh23 routing_veh23" vType="veh_passenger" speedFactor="1.01" vaporized=""/>
    <tripinfo id="veh235" depart="288.00" departLane="-132400906#1_0" departPos="5.10" departSpeed="0.00" departDelay="0.98" arrival="741.00" arrivalLane="294443279#1_0" arrivalPos="60.57" arrivalSpeed="17.45" duration="453.00" routeLength="605.63" waitingTime="388.00" waitingCount="4" stopTime="0.00" timeLoss="429.96" rerouteNo="1" devices="tripinfo_veh235 routing_veh235" vType="veh_passenger" speedFactor="1.02" vaporized=""/>
    <tripinfo id="veh27" depart="33.00" departLane="-770925915#4_0" departPos="5.10" departSpeed="24.24" departDelay="0.02" arrival="746.00" arrivalLane="37136833#1_0" arrivalPos="110.34" arrivalSpeed="22.52" duration="713.00" routeLength="1663.28" waitingTime="561.00" waitingCount="7" stopTime="0.00" timeLoss="640.63" rerouteNo="1" devices="tripinfo_veh27 routing_veh27" vType="veh_passenger" speedFactor="0.87" vaporized=""/>
    <tripinfo id="veh290" depart="355.00" departLane="37114312#1_3" departPos="5.10" departSpeed="0.00" departDelay="0.81" arrival="758.00" arrivalLane="-45050329#5_0" arrivalPos="951.85" arrivalSpeed="25.99" duration="403.00" routeLength="1351.03" waitingTime="316.00" waitingCount="3" stopTime="0.00" timeLoss="351.37" rerouteNo="1" devices="tripinfo_veh290 routing_veh290" vType="veh_passenger" speedFactor="0.97" vaporized=""/>
    <tripinfo id="veh78" depart="96.00" departLane="1092342496#1_0" departPos="5.10" departSpeed="0.00" departDelay="0.73" arrival="761.00" arrivalLane="-45050329#5_0" arrivalPos="951.85" arrivalSpeed="25.90" duration="665.00" routeLength="2084.49" waitingTime="501.00" waitingCount="9" stopTime="0.00" timeLoss="585.08" rerouteNo="1" devices="tripinfo_veh78 routing_veh78" vType="veh_passenger" speedFactor="0.96" vaporized=""/>
    <tripinfo id="veh256" depart="313.00" departLane="45050329#0_1" departPos="5.10" departSpeed="28.45" departDelay="0.33" arrival="762.00" arrivalLane="45050328_0" arrivalPos="0.20" arrivalSpeed="3.92" duration="449.00" routeLength="1929.59" waitingTime="312.00" waitingCount="4" stopTime="0.00" timeLoss="355.24" rerouteNo="1" devices="tripinfo_veh256 routing_veh256" vType="veh_passenger" speedFactor="1.02" vaporized=""/>
    <tripinfo id="veh155" depart="190.00" departLane="17212141#1_1" departPos="5.10" departSpeed="0.00" departDelay="0.69" arrival="768.00" arrivalLane="52095236#4_0" arrivalPos="179.42" arrivalSpeed="21.22" duration="578.00" routeLength="938.71" waitingTime="483.00" waitingCount="5" stopTime="0.00" timeLoss="524.92" rerouteNo="1" devices="tripinfo_veh155 routing_veh155" vType="veh_passenger" speedFactor="0.97" vaporized=""/>
    <tripinfo id="veh32" depart="40.00" departLane="-1087754476#0_0" departPos="0.39" departSpeed="0.00" departDelay="0.92" arrival="782.00" arrivalLane="770925904#2_0" arrivalPos="22.54" arrivalSpeed="24.21" duration="742.00" routeLength="1632.09" waitingTime="569.00" waitingCount="12" stopTime="0.00" timeLoss="687.03" rerouteNo="1" devices="tripinfo_veh32 routing_veh32" vType="veh_passenger" speedFactor="1.18" vaporized=""/>
    <tripinfo id="veh128" depart="157.00" departLane="249270975#2_2" departPos="5.10" departSpeed="0.00" departDelay="0.67" arrival="792.00" arrivalLane="658526873#1_0" arrivalPos="69.31" arrivalSpeed="17.69" duration="635.00" routeLength="1422.90" waitingTime="481.00" waitingCount="8" stopTime="0.00" timeLoss="564.61" rerouteNo="1" devices="tripinfo_veh128 routing_veh128" vType="veh_passenger" speedFactor="1.10" vaporized=""/>
    <tripinfo id="veh126" depart="154.00" departLane="37136834#2_2" departPos="5.02" departSpeed="0.00" departDelay="0.11" arrival="793.00" arrivalLane="132400907#2_1" arrivalPos="12.29" arrivalSpeed="16.98" duration="639.00" routeLength="840.25" waitingTime="545.00" waitingCount="7" stopTime="0.00" timeLoss="609.53" rerouteNo="1" devices="tripinfo_veh126 routing_veh126" vType="veh_passenger" speedFactor="1.07" vaporized=""/>
    <tripinfo id="veh449" depart="549.00" departLane="37114303#14_0" departPos="5.10" departSpeed="0.00" departDelay="0.61" arrival="793.00" arrivalLane="37136834#5_1" arrivalPos="0.20" arrivalSpeed="4.53" duration="244.00" routeLength="701.57" waitingTime="178.00" waitingCount="3" stopTime="0.00" timeLoss="224.08" rerouteNo="1" devices="tripinfo_veh449 routing_veh449" vType="veh_passenger" speedFactor="1.32" vaporized=""/>
    <tripinfo id="veh36" depart="44.00" departLane="132400957#0_0" departPos="5.10" departSpeed="27.64" departDelay="0.03" arrival="795.00" arrivalLane="17202186_0" arrivalPos="157.38" arrivalSpeed="20.86" duration="751.00" routeLength="950.25" waitingTime="667.00" waitingCount="6" stopTime="0.00" timeLoss="710.52" rerouteNo="1" devices="tripinfo_veh36 routing_veh36" vType="veh_passenger" speedFactor="0.99" vaporized=""/>
    <tripinfo id="veh129" depart="158.00" departLane="45050329#0_1" departPos="5.10" departSpeed="28.65" departDelay="0.45" arrival="795.00" arrivalLane="-37113369#4_0" arrivalPos="1.30" arrivalSpeed="9.83" duration="637.00" routeLength="1289.11" waitingTime="546.00" waitingCount="5" stopTime="0.00" timeLoss="590.64" rerouteNo="1" devices="tripinfo_veh129 routing_veh129" vType="veh_passenger" speedFactor="1.03" vaporized=""/>
    <tripinfo id="veh82" depart="101.00" departLane="17225655#0_1" departPos="5.10" departSpeed="27.98" departDelay="0.85" arrival="798.00" arrivalLane="249305446#1_0" arrivalPos="135.53" arrivalSpeed="9.31" duration="697.00" routeLength="940.74" waitingTime="600.00" waitingCount="7" stopTime="0.00" timeLoss="661.89" rerouteNo="1" devices="tripinfo_veh82 routing_veh82" vType="veh_passenger" speedFactor="1.01" vaporized=""/>
    <tripinfo id="veh179" depart="219.00" departLane="37054455#1_0" departPos="5.10" departSpeed="0.00" departDelay="0.38" arrival="802.00" arrivalLane="249270975#2_2" arrivalPos="21.29" arrivalSpeed="18.24" duration="583.00" routeLength="735.04" waitingTime="502.00" waitingCount="5" stopTime="0.00" timeLoss="550.66" rerouteNo="1" devices="tripinfo_veh179 routing_veh179" vType="veh_passenger" speedFactor="1.09" vaporized=""/>
    <tripinfo id="veh67" depart="82.00" departLane="17225655#0_1" departPos="5.10" departSpeed="27.42" departDelay="0.17" arrival="803.00" arrivalLane="132400907#6_1" arrivalPos="7.38" arrivalSpeed="9.50" duration="721.00" routeLength="1060.98" waitingTime="606.00" waitingCount="7" stopTime="0.00" timeLoss="679.19" rerouteNo="1" devices="tripinfo_veh67 routing_veh67" vType="veh_passenger" speedFactor="0.99" vaporized=""/>
    <tripinfo id="veh375" depart="459.00" departLane="292256998#2_0" departPos="5.10" departSpeed="0.00" departDelay="0.99" arrival="808.00" arrivalLane="249270973#2_1" arrivalPos="40.58" arrivalSpeed="6.11" duration="349.00" routeLength="457.98" waitingTime="293.00" waitingCount="2" stopTime="0.00" timeLoss="326.00" rerouteNo="1" devices="tripinfo_veh375 routing_veh375" vType="veh_passenger" speedFactor="1.08" vaporized=""/>