<?xml version="1.0" encoding="UTF-8"?>

<!-- generated on 2023-12-20 20:28:20 by Eclipse SUMO sumo Version 1.19.0
<configuration xmlns:xsi="http://www.w3.org/2001/XMLSchema-instance" xsi:noNamespaceSchemaLocation="http://sumo.dlr.de/xsd/sumoConfiguration.xsd">

    <input>
        <net-file value="sumo/simulation.net.xml"/>
        <route-files value="sumo/osm.passenger.trips.xml"/>
        <additional-files value="sumo/osm.poly.xml.gz"/>
    </input>

    <output>
        <tripinfo-output value="sumo/simulation_tripinfo.xml"/>
    </output>

    <processing>
        <ignore-route-errors value="true"/>
    </processing>

    <routing>
        <device.rerouting.adaptation-steps value="18"/>
        <device.rerouting.adaptation-interval value="10"/>
    </routing>

    <report>
        <verbose value="true"/>
        <no-warnings value="true"/>
        <duration-log.statistics value="true"/>
        <no-step-log value="true"/>
    </report>

    <traci_server>
        <remote-port value="55435"/>
    </traci_server>

    <gui_only>
        <gui-settings-file value="sumo/osm.view.xml"/>
    </gui_only>

</configuration>
-->

<tripinfos xmlns:xsi="http://www.w3.org/2001/XMLSchema-instance" xsi:noNamespaceSchemaLocation="http://sumo.dlr.de/xsd/tripinfo_file.xsd">
    <tripinfo id="veh12" depart="48.00" departLane="-45050329#7_0" departPos="5.10" departSpeed="0.00" departDelay="0.23" arrival="88.00" arrivalLane="-45050329#4_0" arrivalPos="613.15" arrivalSpeed="29.37" duration="40.00" routeLength="784.37" waitingTime="0.00" waitingCount="0" stopTime="0.00" timeLoss="13.48" rerouteNo="1" devices="tripinfo_veh12 routing_veh12" vType="veh_passenger" speedFactor="1.09" vaporized=""/>
    <tripinfo id="veh20" depart="80.00" departLane="292256998#1_0" departPos="5.10" departSpeed="0.00" departDelay="0.38" arrival="110.00" arrivalLane="132400922#1_2" arrivalPos="137.28" arrivalSpeed="23.28" duration="30.00" routeLength="402.92" waitingTime="0.00" waitingCount="0" stopTime="0.00" timeLoss="11.33" rerouteNo="1" devices="tripinfo_veh20 routing_veh20" vType="veh_passenger" speedFactor="0.88" vaporized=""/>
    <tripinfo id="veh29" depart="116.00" departLane="658526864#1_1" departPos="5.10" departSpeed="0.00" departDelay="0.54" arrival="159.00" arrivalLane="294561112#19_0" arrivalPos="152.07" arrivalSpeed="18.24" duration="43.00" routeLength="429.44" waitingTime="3.00" waitingCount="1" stopTime="0.00" timeLoss="20.56" rerouteNo="1" devices="tripinfo_veh29 routing_veh29" vType="veh_passenger" speedFactor="0.87" vaporized=""/>
    <tripinfo id="veh36" depart="144.00" departLane="-37052092#5_0" departPos="5.10" departSpeed="13.96" departDelay="0.68" arrival="224.00" arrivalLane="17221307#1_0" arrivalPos="156.41" arrivalSpeed="13.21" duration="80.00" routeLength="988.37" waitingTime="0.00" waitingCount="0" stopTime="0.00" timeLoss="8.27" rerouteNo="1" devices="tripinfo_veh36 routing_veh36" vType="veh_passenger" speedFactor="1.01" vaporized=""/>
    <tripinfo id="veh0" depart="0.00" departLane="37915614#2_0" departPos="5.10" departSpeed="0.00" departDelay="0.00" arrival="225.00" arrivalLane="-132400957#2_0" arrivalPos="9.93" arrivalSpeed="25.40" duration="225.00" routeLength="1281.99" waitingTime="103.00" waitingCount="7" stopTime="0.00" timeLoss="172.91" rerouteNo="1" devices="tripinfo_veh0 routing_veh0" vType="veh_passenger" speedFactor="1.06" vaporized=""/>
    <tripinfo id="veh7" depart="28.00" departLane="17205224#2_0" departPos="5.10" departSpeed="0.00" departDelay="0.13" arrival="242.00" arrivalLane="37052092#4_0" arrivalPos="53.54" arrivalSpeed="13.84" duration="214.00" routeLength="755.89" waitingTime="141.00" waitingCount="3" stopTime="0.00" timeLoss="170.79" rerouteNo="1" devices="tripinfo_veh7 routing_veh7" vType="veh_passenger" speedFactor="1.05" vaporized=""/>
    <tripinfo id="veh14" depart="56.00" departLane="45204087#0_0" departPos="5.10" departSpeed="23.27" departDelay="0.26" arrival="245.00" arrivalLane="37915612#1_0" arrivalPos="107.07" arrivalSpeed="21.56" duration="189.00" routeLength="1196.74" waitingTime="90.00" waitingCount="5" stopTime="0.00" timeLoss="145.43" rerouteNo="1" devices="tripinfo_veh14 routing_veh14" vType="veh_passenger" speedFactor="1.05" vaporized=""/>
    <tripinfo id="veh22" depart="88.00" departLane="132400957#0_0" departPos="5.10" departSpeed="26.01" departDelay="0.41" arrival="245.00" arrivalLane="37915612#1_1" arrivalPos="107.07" arrivalSpeed="21.18" duration="157.00" routeLength="1335.48" waitingTime="51.00" waitingCount="4" stopTime="0.00" timeLoss="105.47" rerouteNo="1" devices="tripinfo_veh22 routing_veh22" vType="veh_passenger" speedFactor="0.94" vaporized=""/>
    <tripinfo id="veh2" depart="8.00" departLane="658342131#0_0" departPos="5.10" departSpeed="28.07" departDelay="0.04" arrival="254.00" arrivalLane="-45050329#4_0" arrivalPos="613.15" arrivalSpeed="27.38" duration="246.00" routeLength="1835.19" waitingTime="125.00" waitingCount="5" stopTime="0.00" timeLoss="178.25" rerouteNo="1" devices="tripinfo_veh2 routing_veh2" vType="veh_passenger" speedFactor="1.01" vaporized=""/>
    <tripinfo id="veh35" depart="140.00" departLane="45090429#0_0" departPos="5.10" departSpeed="25.65" departDelay="0.66" arrival="263.00" arrivalLane="25593473#0_0" arrivalPos="141.15" arrivalSpeed="25.15" duration="123.00" routeLength="999.52" waitingTime="34.00" waitingCount="4" stopTime="0.00" timeLoss="72.96" rerouteNo="1" devices="tripinfo_veh35 routing_veh35" vType="veh_passenger" speedFactor="1.15" vaporized=""/>
    <tripinfo id="veh9" depart="36.00" departLane="45090429#5_0" departPos="5.10" departSpeed="0.00" departDelay="0.17" arrival="273.00" arrivalLane="37138017#1_1" arrivalPos="123.83" arrivalSpeed="24.72" duration="237.00" routeLength="1209.35" waitingTime="113.00" waitingCount="6" stopTime="0.00" timeLoss="167.04" rerouteNo="1" devices="tripinfo_veh9 routing_veh9" vType="veh_passenger" speedFactor="0.94" vaporized=""/>
    <tripinfo id="veh4" depart="16.00" departLane="17205224#2_1" departPos="5.10" departSpeed="0.00" departDelay="0.08" arrival="287.00" arrivalLane="306461344#2_0" arrivalPos="17.86" arrivalSpeed="13.38" duration="271.00" routeLength="1498.97" waitingTime="117.00" waitingCount="6" stopTime="0.00" timeLoss="206.37" rerouteNo="1" devices="tripinfo_veh4 routing_veh4" vType="veh_passenger" speedFactor="1.03" vaporized=""/>
    <tripinfo id="veh48" depart="192.00" departLane="37114312#1_3" departPos="5.10" departSpeed="0.00" departDelay="0.90" arrival="289.00" arrivalLane="1057713529#2_1" arrivalPos="23.96" arrivalSpeed="18.47" duration="97.00" routeLength="412.34" waitingTime="53.00" waitingCount="2" stopTime="0.00" timeLoss="78.20" rerouteNo="1" devices="tripinfo_veh48 routing_veh48" vType="veh_passenger" speedFactor="0.90" vaporized=""/>
    <tripinfo id="veh8" depart="32.00" departLane="45204087#0_0" departPos="5.10" departSpeed="19.69" departDelay="0.15" arrival="293.00" arrivalLane="1057713529#3_0" arrivalPos="38.04" arrivalSpeed="24.28" duration="261.00" routeLength="1132.34" waitingTime="166.00" waitingCount="4" stopTime="0.00" timeLoss="210.14" rerouteNo="1" devices="tripinfo_veh8 routing_veh8" vType="veh_passenger" speedFactor="0.89" vaporized=""/>
    <tripinfo id="veh57" depart="227.00" departLane="-37052092#5_0" departPos="5.10" departSpeed="13.85" departDelay="0.07" arrival="295.00" arrivalLane="45050329#10_1" arrivalPos="40.43" arrivalSpeed="19.66" duration="68.00" routeLength="860.18" waitingTime="0.00" waitingCount="0" stopTime="0.00" timeLoss="8.08" rerouteNo="1" devices="tripinfo_veh57 routing_veh57" vType="veh_passenger" speedFactor="1.00" vaporized=""/>
    <tripinfo id="veh18" depart="72.00" departLane="-518910430#1_0" departPos="5.10" departSpeed="0.00" departDelay="0.34" arrival="305.00" arrivalLane="17205735#2_1" arrivalPos="7.74" arrivalSpeed="18.32" duration="233.00" routeLength="951.78" waitingTime="135.00" waitingCount="5" stopTime="0.00" timeLoss="191.00" rerouteNo="1" devices="tripinfo_veh18 routing_veh18" vType="veh_passenger" speedFactor="0.93" vaporized=""/>
    <tripinfo id="veh34" depart="136.00" departLane="-770925915#2_0" departPos="5.10" departSpeed="0.00" departDelay="0.64" arrival="316.00" arrivalLane="37114303#4_0" arrivalPos="27.93" arrivalSpeed="14.08" duration="180.00" routeLength="639.81" waitingTime="107.00" waitingCount="4" stopTime="0.00" timeLoss="159.75" rerouteNo="1" devices="tripinfo_veh34 routing_veh34" vType="veh_passenger" speedFactor="1.18" vaporized=""/>
    <tripinfo id="veh66" depart="263.00" departLane="37113369#1_0" departPos="5.10" departSpeed="0.00" departDelay="0.24" arrival="321.00" arrivalLane="37114303#7_0" arrivalPos="22.21" arrivalSpeed="6.38" duration="58.00" routeLength="447.50" waitingTime="13.00" waitingCount="1" stopTime="0.00" timeLoss="38.79" rerouteNo="1" devices="tripinfo_veh66 routing_veh66" vType="veh_passenger" speedFactor="1.00" vaporized=""/>
    <tripinfo id="veh1" depart="4.00" departLane="45050329#0_1" departPos="5.10" departSpeed="26.07" departDelay="0.02" arrival="331.00" arrivalLane="37136833#3_0" arrivalPos="142.42" arrivalSpeed="25.41" duration="327.00" routeLength="2264.93" waitingTime="164.00" waitingCount="6" stopTime="0.00" timeLoss="237.60" rerouteNo="1" devices="tripinfo_veh1 routing_veh1" vType="veh_passenger" speedFactor="0.94" vaporized=""/>
    <tripinfo id="veh13" depart="52.00" departLane="518910434#0-AddedOnRampEdge_1" departPos="5.10" departSpeed="24.92" departDelay="0.24" arrival="332.00" arrivalLane="37054458#1_0" arrivalPos="54.00" arrivalSpeed="16.53" duration="280.00" routeLength="1418.81" waitingTime="153.00" waitingCount="6" stopTime="0.00" timeLoss="218.68" rerouteNo="1" devices="tripinfo_veh13 routing_veh13" vType="veh_passenger" speedFactor="1.03" vaporized=""/>
    <tripinfo id="veh3" depart="12.00" departLane="304618246#0_0" departPos="5.10" departSpeed="25.57" departDelay="0.06" arrival="338.00" arrivalLane="-17213698#1_0" arrivalPos="75.49" arrivalSpeed="14.55" duration="326.00" routeLength="1415.68" waitingTime="194.00" waitingCount="6" stopTime="0.00" timeLoss="260.73" rerouteNo="1" devices="tripinfo_veh3 routing_veh3" vType="veh_passenger" speedFactor="1.08" vaporized=""/>
    <tripinfo id="veh21" depart="84.00" departLane="39275723#0_0" departPos="5.10" departSpeed="26.15" departDelay="0.39" arrival="338.00" arrivalLane="37054458#3_0" arrivalPos="52.32" arrivalSpeed="25.75" duration="254.00" routeLength="1299.81" waitingTime="132.00" waitingCount="5" stopTime="0.00" timeLoss="189.61" rerouteNo="1" devices="tripinfo_veh21 routing_veh21" vType="veh_passenger" speedFactor="0.94" vaporized=""/>
    <tripinfo id="veh39" depart="156.00" departLane="132400957#2_0" departPos="5.10" departSpeed="0.00" departDelay="0.73" arrival="344.00" arrivalLane="37915612#1_0" arrivalPos="107.07" arrivalSpeed="21.89" duration="188.00" routeLength="1227.77" waitingTime="97.00" waitingCount="3" stopTime="0.00" timeLoss="143.32" rerouteNo="1" devices="tripinfo_veh39 routing_veh39" vType="veh_passenger" speedFactor="0.99" vaporized=""/>
    <tripinfo id="veh41" depart="164.00" departLane="17208008#1_1" departPos="0.20" departSpeed="0.00" departDelay="0.77" arrival="357.00" arrivalLane="37114305#5_0" arrivalPos="8.50" arrivalSpeed="20.77" duration="193.00" routeLength="960.49" waitingTime="102.00" waitingCount="4" stopTime="0.00" timeLoss="153.49" rerouteNo="1" devices="tripinfo_veh41 routing_veh41" vType="veh_passenger" speedFactor="1.02" vaporized=""/>
    <tripinfo id="veh74" depart="295.00" departLane="304618246#0_1" departPos="5.10" departSpeed="28.22" departDelay="0.39" arrival="369.00" arrivalLane="294561112#19_0" arrivalPos="152.07" arrivalSpeed="22.48" duration="74.00" routeLength="537.74" waitingTime="33.00" waitingCount="2" stopTime="0.00" timeLoss="50.86" rerouteNo="1" devices="tripinfo_veh74 routing_veh74" vType="veh_passenger" speedFactor="1.02" vaporized=""/>
    <tripinfo id="veh43" depart="172.00" departLane="304618246#0_0" departPos="5.10" departSpeed="32.77" departDelay="0.81" arrival="373.00" arrivalLane="770925908_0" arrivalPos="20.77" arrivalSpeed="6.73" duration="201.00" routeLength="980.14" waitingTime="113.00" waitingCount="5" stopTime="0.00" timeLoss="169.60" rerouteNo="1" devices="tripinfo_veh43 routing_veh43" vType="veh_passenger" speedFactor="1.18" vaporized=""/>
    <tripinfo id="veh67" depart="267.00" departLane="518910434#0-AddedOnRampEdge_1" departPos="5.10" departSpeed="24.92" departDelay="0.26" arrival="373.00" arrivalLane="45050329#14_0" arrivalPos="19.60" arrivalSpeed="24.89" duration="106.00" routeLength="639.47" waitingTime="54.00" waitingCount="1" stopTime="0.00" timeLoss="69.78" rerouteNo="1" devices="tripinfo_veh67 routing_veh67" vType="veh_passenger" speedFactor="0.90" vaporized=""/>
    <tripinfo id="veh28" depart="112.00" departLane="39275723#0_0" departPos="5.10" departSpeed="22.94" departDelay="0.53" arrival="374.00" arrivalLane="17227246#1_0" arrivalPos="106.81" arrivalSpeed="22.15" duration="262.00" routeLength="1277.73" waitingTime="132.00" waitingCount="4" stopTime="0.00" timeLoss="190.57" rerouteNo="1" devices="tripinfo_veh28 routing_veh28" vType="veh_passenger" speedFactor="0.83" vaporized=""/>
    <tripinfo id="veh46" depart="184.00" departLane="658342131#2_1" departPos="5.10" departSpeed="0.00" departDelay="0.86" arrival="381.00" arrivalLane="658526864#7_0" arrivalPos="74.64" arrivalSpeed="24.81" duration="197.00" routeLength="1242.01" waitingTime="101.00" waitingCount="4" stopTime="0.00" timeLoss="153.68" rerouteNo="1" devices="tripinfo_veh46 routing_veh46" vType="veh_passenger" speedFactor="1.10" vaporized=""/>
    <tripinfo id="veh26" depart="104.00" departLane="17205224#6_0" departPos="5.10" departSpeed="0.00" departDelay="0.49" arrival="383.00" arrivalLane="-17213698#2_0" arrivalPos="19.59" arrivalSpeed="12.98" duration="279.00" routeLength="633.11" waitingTime="203.00" waitingCount="3" stopTime="0.00" timeLoss="235.69" rerouteNo="1" devices="tripinfo_veh26 routing_veh26" vType="veh_passenger" speedFactor="0.97" vaporized=""/>
    <tripinfo id="veh51" depart="204.00" departLane="-1057713529#0_1" departPos="5.10" departSpeed="0.00" departDelay="0.96" arrival="405.00" arrivalLane="17213444#1_0" arrivalPos="132.58" arrivalSpeed="23.10" duration="201.00" routeLength="1078.61" waitingTime="113.00" waitingCount="3" stopTime="0.00" timeLoss="156.78" rerouteNo="1" devices="tripinfo_veh51 routing_veh51" vType="veh_passenger" speedFactor="1.03" vaporized=""/>
    <tripinfo id="veh61" depart="243.00" departLane="17205222#4_0" departPos="1.35" departSpeed="0.00" departDelay="0.15" arrival="405.00" arrivalLane="17213444#1_1" arrivalPos="132.58" arrivalSpeed="23.50" duration="162.00" routeLength="960.35" waitingTime="69.00" waitingCount="3" stopTime="0.00" timeLoss="113.16" rerouteNo="1" devices="tripinfo_veh61 routing_veh61" vType="veh_passenger" speedFactor="0.85" vaporized=""/>
    <tripinfo id="veh5" depart="20.00" departLane="-17221307#1_0" departPos="5.10" departSpeed="11.54" departDelay="0.09" arrival="406.00" arrivalLane="132400907#1_1" arrivalPos="142.32" arrivalSpeed="22.36" duration="386.00" routeLength="1538.19" waitingTime="234.00" waitingCount="6" stopTime="0.00" timeLoss="301.37" rerouteNo="1" devices="tripinfo_veh5 routing_veh5" vType="veh_passenger" speedFactor="0.83" vaporized=""/>
    <tripinfo id="veh30" depart="120.00" departLane="-37052092#3_0" departPos="5.10" departSpeed="0.00" departDelay="0.56" arrival="412.00" arrivalLane="17205224#3_1" arrivalPos="12.69" arrivalSpeed="17.51" duration="292.00" routeLength="862.97" waitingTime="191.00" waitingCount="4" stopTime="0.00" timeLoss="242.59" rerouteNo="1" devices="tripinfo_veh30 routing_veh30" vType="veh_passenger" speedFactor="0.92" vaporized=""/>
    <tripinfo id="veh76" depart="303.00" departLane="88617178#0_0" departPos="5.10" departSpeed="13.02" departDelay="0.43" arrival="418.00" arrivalLane="-45050329#4_0" arrivalPos="613.15" arrivalSpeed="25.57" duration="115.00" routeLength="1245.03" waitingTime="29.00" waitingCount="1" stopTime="0.00" timeLoss="48.05" rerouteNo="1" devices="tripinfo_veh76 routing_veh76" vType="veh_passenger" speedFactor="0.94" vaporized=""/>
    <tripinfo id="veh54" depart="215.00" departLane="249270974#1_0" departPos="5.10" departSpeed="0.00" departDelay="0.01" arrival="426.00" arrivalLane="37113369#1_0" arrivalPos="56.96" arrivalSpeed="16.38" duration="211.00" routeLength="1460.53" waitingTime="87.00" waitingCount="4" stopTime="0.00" timeLoss="150.46" rerouteNo="1" devices="tripinfo_veh54 routing_veh54" vType="veh_passenger" speedFactor="1.04" vaporized=""/>
    <tripinfo id="veh93" depart="371.00" departLane="-37052092#5_0" departPos="5.10" departSpeed="15.10" departDelay="0.75" arrival="428.00" arrivalLane="-37052092#0_0" arrivalPos="139.46" arrivalSpeed="15.00" duration="57.00" routeLength="812.43" waitingTime="0.00" waitingCount="0" stopTime="0.00" timeLoss="2.48" rerouteNo="1" devices="tripinfo_veh93 routing_veh93" vType="veh_passenger" speedFactor="1.09" vaporized=""/>
    <tripinfo id="veh81" depart="323.00" departLane="304618246#0_1" departPos="5.10" departSpeed="25.57" departDelay="0.52" arrival="431.00" arrivalLane="658526864#1_1" arrivalPos="107.08" arrivalSpeed="21.07" duration="108.00" routeLength="484.12" waitingTime="60.00" waitingCount="3" stopTime="0.00" timeLoss="89.75" rerouteNo="1" devices="tripinfo_veh81 routing_veh81" vType="veh_passenger" speedFactor="1.04" vaporized=""/>
    <tripinfo id="veh73" depart="291.00" departLane="45204238#1_0" departPos="5.10" departSpeed="0.00" departDelay="0.37" arrival="448.00" arrivalLane="294443279#1_0" arrivalPos="60.57" arrivalSpeed="16.54" duration="157.00" routeLength="1122.17" waitingTime="64.00" waitingCount="3" stopTime="0.00" timeLoss="118.93" rerouteNo="1" devices="tripinfo_veh73 routing_veh73" vType="veh_passenger" speedFactor="1.12" vaporized=""/>
    <tripinfo id="veh96" depart="383.00" departLane="37114305#3_0" departPos="0.20" departSpeed="0.00" departDelay="0.80" arrival="452.00" arrivalLane="37136833#3_0" arrivalPos="142.42" arrivalSpeed="26.95" duration="69.00" routeLength="363.79" waitingTime="40.00" waitingCount="1" stopTime="0.00" timeLoss="55.76" rerouteNo="1" devices="tripinfo_veh96 routing_veh96" vType="veh_passenger" speedFactor="1.00" vaporized=""/>
    <tripinfo id="veh78" depart="311.00" departLane="518910434#0-AddedOnRampEdge_1" departPos="5.10" departSpeed="23.51" departDelay="0.47" arrival="456.00" arrivalLane="17205222#6_1" arrivalPos="7.04" arrivalSpeed="18.88" duration="145.00" routeLength="571.54" waitingTime="97.00" waitingCount="2" stopTime="0.00" timeLoss="119.89" rerouteNo="1" devices="tripinfo_veh78 routing_veh78" vType="veh_passenger" speedFactor="0.88" vaporized=""/>
    <tripinfo id="veh32" depart="128.00" departLane="294561112#16_1" departPos="5.10" departSpeed="0.00" departDelay="0.60" arrival="466.00" arrivalLane="168728401#1_0" arrivalPos="114.01" arrivalSpeed="22.02" duration="338.00" routeLength="1759.39" waitingTime="166.00" waitingCount="9" stopTime="0.00" timeLoss="269.36" rerouteNo="1" devices="tripinfo_veh32 routing_veh32" vType="veh_passenger" speedFactor="1.13" vaporized=""/>
    <tripinfo id="veh17" depart="68.00" departLane="518910434#0-AddedOnRampEdge_1" departPos="5.10" departSpeed="23.51" departDelay="0.32" arrival="472.00" arrivalLane="37051419#5_0" arrivalPos="56.72" arrivalSpeed="13.52" duration="404.00" routeLength="1510.38" waitingTime="262.00" waitingCount="5" stopTime="0.00" timeLoss="328.74" rerouteNo="1" devices="tripinfo_veh17 routing_veh17" vType="veh_passenger" speedFactor="0.99" vaporized=""/>
    <tripinfo id="veh31" depart="124.00" departLane="37114303#2_0" departPos="5.10" departSpeed="0.00" departDelay="0.58" arrival="478.00" arrivalLane="658527085#2_0" arrivalPos="13.85" arrivalSpeed="23.29" duration="354.00" routeLength="1576.34" waitingTime="197.00" waitingCount="8" stopTime="0.00" timeLoss="279.73" rerouteNo="1" devices="tripinfo_veh31 routing_veh31" vType="veh_passenger" speedFactor="0.95" vaporized=""/>
    <tripinfo id="veh70" depart="279.00" departLane="658526876#3_0" departPos="5.10" departSpeed="0.00" departDelay="0.32" arrival="478.00" arrivalLane="37051419#5_0" arrivalPos="56.72" arrivalSpeed="13.26" duration="199.00" routeLength="1134.37" waitingTime="71.00" waitingCount="5" stopTime="0.00" timeLoss="133.29" rerouteNo="1" devices="tripinfo_veh70 routing_veh70" vType="veh_passenger" speedFactor="0.97" vaporized=""/>
    <tripinfo id="veh27" depart="108.00" departLane="249305447#0_1" departPos="5.10" departSpeed="24.71" departDelay="0.51" arrival="489.00" arrivalLane="17205224#5_0" arrivalPos="19.24" arrivalSpeed="24.29" duration="381.00" routeLength="1195.83" waitingTime="259.00" waitingCount="7" stopTime="0.00" timeLoss="329.79" rerouteNo="1" devices="tripinfo_veh27 routing_veh27" vType="veh_passenger" speedFactor="0.89" vaporized=""/>
    <tripinfo id="veh88" depart="351.00" departLane="304618246#0_0" departPos="5.10" departSpeed="24.15" departDelay="0.65" arrival="507.00" arrivalLane="25593473#0_1" arrivalPos="141.15" arrivalSpeed="9.91" duration="156.00" routeLength="922.19" waitingTime="54.00" waitingCount="4" stopTime="0.00" timeLoss="113.52" rerouteNo="1" devices="tripinfo_veh88 routing_veh88" vType="veh_passenger" speedFactor="0.96" vaporized=""/>
    <tripinfo id="veh72" depart="287.00" departLane="45204087#0_0" departPos="5.10" departSpeed="24.05" departDelay="0.35" arrival="512.00" arrivalLane="132400907#1_1" arrivalPos="142.32" arrivalSpeed="24.92" duration="225.00" routeLength="1059.10" waitingTime="140.00" waitingCount="4" stopTime="0.00" timeLoss="184.80" rerouteNo="1" devices="tripinfo_veh72 routing_veh72" vType="veh_passenger" speedFactor="1.08" vaporized=""/>
    <tripinfo id="veh25" depart="100.00" departLane="37052092#0_0" departPos="5.10" departSpeed="0.00" departDelay="0.47" arrival="513.00" arrivalLane="37136833#3_0" arrivalPos="142.42" arrivalSpeed="27.86" duration="413.00" routeLength="1718.49" waitingTime="245.00" waitingCount="8" stopTime="0.00" timeLoss="336.05" rerouteNo="1" devices="tripinfo_veh25 routing_veh25" vType="veh_passenger" speedFactor="1.01" vaporized=""/>
    <tripinfo id="veh24" depart="96.00" departLane="88617178#0_0" departPos="5.10" departSpeed="14.14" departDelay="0.45" arrival="518.00" arrivalLane="37114305#4_0" arrivalPos="5.76" arrivalSpeed="17.76" duration="422.00" routeLength="1577.11" waitingTime="267.00" waitingCount="6" stopTime="0.00" timeLoss="347.46" rerouteNo="1" devices="tripinfo_veh24 routing_veh24" vType="veh_passenger" speedFactor="1.02" vaporized=""/>
    <tripinfo id="veh69" depart="275.00" departLane="17205224#0_0" departPos="5.10" departSpeed="0.00" departDelay="0.30" arrival="522.00" arrivalLane="-88617178#0_0" arrivalPos="126.32" arrivalSpeed="13.89" duration="247.00" routeLength="984.53" waitingTime="157.00" waitingCount="3" stopTime="0.00" timeLoss="195.03" rerouteNo="1" devices="tripinfo_veh69 routing_veh69" vType="veh_passenger" speedFactor="1.02" vaporized=""/>
    <tripinfo id="veh62" depart="247.00" departLane="88617178#3_0" departPos="5.10" departSpeed="0.00" departDelay="0.16" arrival="529.00" arrivalLane="37114312#1_1" arrivalPos="24.74" arrivalSpeed="10.57" duration="282.00" routeLength="590.72" waitingTime="222.00" waitingCount="3" stopTime="0.00" timeLoss="261.33" rerouteNo="1" devices="tripinfo_veh62 routing_veh62" vType="veh_passenger" speedFactor="1.17" vaporized=""/>
    <tripinfo id="veh92" depart="367.00" departLane="37051824#0_1" departPos="5.10" departSpeed="27.98" departDelay="0.73" arrival="532.00" arrivalLane="39606271#4_0" arrivalPos="36.44" arrivalSpeed="13.47" duration="165.00" routeLength="1040.94" waitingTime="70.00" waitingCount="2" stopTime="0.00" timeLoss="117.39" rerouteNo="1" devices="tripinfo_veh92 routing_veh92" vType="veh_passenger" speedFactor="1.01" vaporized=""/>
    <tripinfo id="veh33" depart="132.00" departLane="45050329#7_1" departPos="5.10" departSpeed="0.00" departDelay="0.62" arrival="536.00" arrivalLane="-292256999#2_0" arrivalPos="68.46" arrivalSpeed="17.82" duration="404.00" routeLength="1001.93" waitingTime="291.00" waitingCount="7" stopTime="0.00" timeLoss="355.92" rerouteNo="1" devices="tripinfo_veh33 routing_veh33" vType="veh_passenger" speedFactor="0.93" vaporized=""/>
    <tripinfo id="veh60" depart="239.00" departLane="37051824#0_1" departPos="5.10" departSpeed="23.62" departDelay="0.13" arrival="539.00" arrivalLane="37915612#1_0" arrivalPos="107.07" arrivalSpeed="21.51" duration="300.00" routeLength="699.56" waitingTime="234.00" waitingCount="4" stopTime="0.00" timeLoss="267.37" rerouteNo="1" devices="tripinfo_veh60 routing_veh60" vType="veh_passenger" speedFactor="0.85" vaporized=""/>
    <tripinfo id="veh80" depart="319.00" departLane="304618246#0_0" departPos="5.10" departSpeed="25.41" departDelay="0.50" arrival="543.00" arrivalLane="17205735#2_1" arrivalPos="7.74" arrivalSpeed="18.56" duration="224.00" routeLength="979.77" waitingTime="122.00" waitingCount="6" stopTime="0.00" timeLoss="183.60" rerouteNo="1" devices="tripinfo_veh80 routing_veh80" vType="veh_passenger" speedFactor="0.91" vaporized=""/>
    <tripinfo id="veh119" depart="474.00" departLane="518910434#0-AddedOnRampEdge_1" departPos="5.10" departSpeed="24.92" departDelay="0.24" arrival="546.00" arrivalLane="-45050329#4_1" arrivalPos="613.15" arrivalSpeed="26.29" duration="72.00" routeLength="907.18" waitingTime="18.00" waitingCount="1" stopTime="0.00" timeLoss="28.73" rerouteNo="1" devices="tripinfo_veh119 routing_veh119" vType="veh_passenger" speedFactor="0.97" vaporized=""/>
    <tripinfo id="veh38" depart="152.00" departLane="-770925915#2_0" departPos="5.10" departSpeed="0.00" departDelay="0.71" arrival="548.00" arrivalLane="658526864#1_1" arrivalPos="107.08" arrivalSpeed="21.11" duration="396.00" routeLength="1512.98" waitingTime="231.00" waitingCount="10" stopTime="0.00" timeLoss="345.30" rerouteNo="1" devices="tripinfo_veh38 routing_veh38" vType="veh_passenger" speedFactor="1.17" vaporized=""/>
    <tripinfo id="veh59" depart="235.00" departLane="304618246#0_0" departPos="5.10" departSpeed="24.36" departDelay="0.11" arrival="549.00" arrivalLane="-132400957#2_0" arrivalPos="9.93" arrivalSpeed="23.36" duration="314.00" routeLength="1604.03" waitingTime="175.00" waitingCount="6" stopTime="0.00" timeLoss="237.96" rerouteNo="1" devices="tripinfo_veh59 routing_veh59" vType="veh_passenger" speedFactor="0.88" vaporized=""/>
    <tripinfo id="veh10" depart="40.00" departLane="249305447#0_1" departPos="5.10" departSpeed="23.80" departDelay="0.19" arrival="562.00" arrivalLane="1057713529#3_0" arrivalPos="38.04" arrivalSpeed="15.01" duration="522.00" routeLength="1436.74" waitingTime="383.00" waitingCount="7" stopTime="0.00" timeLoss="457.97" rerouteNo="1" devices="tripinfo_veh10 routing_veh10" vType="veh_passenger" speedFactor="0.86" vaporized=""/>
    <tripinfo id="veh58" depart="231.00" departLane="17208008#0_1" departPos="5.10" departSpeed="0.00" departDelay="0.09" arrival="564.00" arrivalLane="658526864#7_0" arrivalPos="74.64" arrivalSpeed="24.74" duration="333.00" routeLength="771.92" waitingTime="240.00" waitingCount="7" stopTime="0.00" timeLoss="297.85" rerouteNo="1" devices="tripinfo_veh58 routing_veh58" vType="veh_passenger" speedFactor="0.90" vaporized=""/>
    <tripinfo id="veh91" depart="363.00" departLane="-770925915#1_0" departPos="5.10" departSpeed="0.00" departDelay="0.71" arrival="568.00" arrivalLane="37051419#5_0" arrivalPos="56.72" arrivalSpeed="13.53" duration="205.00" routeLength="1228.54" waitingTime="65.00" waitingCount="6" stopTime="0.00" timeLoss="139.61" rerouteNo="1" devices="tripinfo_veh91 routing_veh91" vType="veh_passenger" speedFactor="0.98" vaporized=""/>
    <tripinfo id="veh113" depart="450.00" departLane="-770925915#6_1" departPos="5.10" departSpeed="31.16" departDelay="0.12" arrival="568.00" arrivalLane="-518910430#2_0" arrivalPos="31.29" arrivalSpeed="12.19" duration="118.00" routeLength="518.31" waitingTime="78.00" waitingCount="2" stopTime="0.00" timeLoss="94.62" rerouteNo="1" devices="tripinfo_veh113 routing_veh113" vType="veh_passenger" speedFactor="1.12" vaporized=""/>
    <tripinfo id="veh82" depart="327.00" departLane="37051824#0_1" departPos="5.10" departSpeed="28.39" departDelay="0.54" arrival="574.00" arrivalLane="37052092#0_0" arrivalPos="139.46" arrivalSpeed="14.01" duration="247.00" routeLength="1427.18" waitingTime="126.00" waitingCount="6" stopTime="0.00" timeLoss="185.74" rerouteNo="1" devices="tripinfo_veh82 routing_veh82" vType="veh_passenger" speedFactor="1.02" vaporized=""/>
    <tripinfo id="veh79" depart="315.00" departLane="17205222#0_0" departPos="5.10" departSpeed="0.00" departDelay="0.48" arrival="575.00" arrivalLane="294561112#14_1" arrivalPos="11.63" arrivalSpeed="16.08" duration="260.00" routeLength="1067.76" waitingTime="143.00" waitingCount="7" stopTime="0.00" timeLoss="211.94" rerouteNo="1" devices="tripinfo_veh79 routing_veh79" vType="veh_passenger" speedFactor="0.91" vaporized=""/>
    <tripinfo id="veh52" depart="208.00" departLane="-17213698#3_0" departPos="5.10" departSpeed="0.00" departDelay="0.98" arrival="590.00" arrivalLane="770925905#3_1" arrivalPos="5.31" arrivalSpeed="23.17" duration="382.00" routeLength="1536.39" waitingTime="249.00" waitingCount="6" stopTime="0.00" timeLoss="305.60" rerouteNo="1" devices="tripinfo_veh52 routing_veh52" vType="veh_passenger" speedFactor="0.96" vaporized=""/>
    <tripinfo id="veh115" depart="458.00" departLane="-17213698#2_0" departPos="5.10" departSpeed="0.00" departDelay="0.16" arrival="600.00" arrivalLane="37054458#1_0" arrivalPos="54.00" arrivalSpeed="17.65" duration="142.00" routeLength="1173.23" waitingTime="38.00" waitingCount="3" stopTime="0.00" timeLoss="90.73" rerouteNo="1" devices="tripinfo_veh115 routing_veh115" vType="veh_passenger" speedFactor="1.10" vaporized=""/>