<?xml version="1.0" encoding="UTF-8"?>

<!-- generated on 2023-12-19 17:36:22 by Eclipse SUMO sumo Version 1.19.0
<configuration xmlns:xsi="http://www.w3.org/2001/XMLSchema-instance" xsi:noNamespaceSchemaLocation="http://sumo.dlr.de/xsd/sumoConfiguration.xsd">

    <input>
        <net-file value="sumo/simulation.net.xml"/>
        <route-files value="sumo/osm.passenger.trips.xml"/>
        <additional-files value="sumo/osm.poly.xml.gz"/>
    </input>

    <output>
        <tripinfo-output value="sumo/simulation_tripinfo.xml"/>
    </output>

    <processing>
        <ignore-route-errors value="true"/>
    </processing>

    <routing>
        <device.rerouting.adaptation-steps value="18"/>
        <device.rerouting.adaptation-interval value="10"/>
    </routing>

    <report>
        <verbose value="true"/>
        <no-warnings value="true"/>
        <duration-log.statistics value="true"/>
        <no-step-log value="true"/>
    </report>

    <traci_server>
        <remote-port value="55372"/>
    </traci_server>

    <gui_only>
        <gui-settings-file value="sumo/osm.view.xml"/>
    </gui_only>

</configuration>
-->

<tripinfos xmlns:xsi="http://www.w3.org/2001/XMLSchema-instance" xsi:noNamespaceSchemaLocation="http://sumo.dlr.de/xsd/tripinfo_file.xsd">
    <tripinfo id="veh12" depart="48.00" departLane="-45050329#7_0" departPos="5.10" departSpeed="0.00" departDelay="0.23" arrival="104.00" arrivalLane="-45050329#4_0" arrivalPos="613.15" arrivalSpeed="29.09" duration="56.00" routeLength="784.37" waitingTime="11.00" waitingCount="1" stopTime="0.00" timeLoss="30.11" rerouteNo="1" devices="tripinfo_veh12 routing_veh12" vType="veh_passenger" speedFactor="1.09" vaporized=""/>
    <tripinfo id="veh20" depart="80.00" departLane="292256998#1_0" departPos="5.10" departSpeed="0.00" departDelay="0.38" arrival="109.00" arrivalLane="132400922#1_2" arrivalPos="137.28" arrivalSpeed="23.55" duration="29.00" routeLength="402.92" waitingTime="0.00" waitingCount="0" stopTime="0.00" timeLoss="10.47" rerouteNo="1" devices="tripinfo_veh20 routing_veh20" vType="veh_passenger" speedFactor="0.88" vaporized=""/>
    <tripinfo id="veh7" depart="28.00" departLane="17205224#2_0" departPos="5.10" departSpeed="0.00" departDelay="0.13" arrival="204.00" arrivalLane="37052092#4_0" arrivalPos="53.54" arrivalSpeed="13.61" duration="176.00" routeLength="755.89" waitingTime="107.00" waitingCount="2" stopTime="0.00" timeLoss="132.70" rerouteNo="1" devices="tripinfo_veh7 routing_veh7" vType="veh_passenger" speedFactor="1.05" vaporized=""/>
    <tripinfo id="veh29" depart="116.00" departLane="658526864#1_1" departPos="5.10" departSpeed="0.00" departDelay="0.54" arrival="206.00" arrivalLane="294561112#19_0" arrivalPos="152.07" arrivalSpeed="19.08" duration="90.00" routeLength="429.44" waitingTime="48.00" waitingCount="1" stopTime="0.00" timeLoss="67.57" rerouteNo="1" devices="tripinfo_veh29 routing_veh29" vType="veh_passenger" speedFactor="0.87" vaporized=""/>
    <tripinfo id="veh22" depart="88.00" departLane="132400957#0_0" departPos="5.10" departSpeed="26.01" departDelay="0.41" arrival="221.00" arrivalLane="37915612#1_1" arrivalPos="107.07" arrivalSpeed="22.86" duration="133.00" routeLength="1335.48" waitingTime="43.00" waitingCount="3" stopTime="0.00" timeLoss="81.28" rerouteNo="1" devices="tripinfo_veh22 routing_veh22" vType="veh_passenger" speedFactor="0.94" vaporized=""/>
    <tripinfo id="veh14" depart="56.00" departLane="45204087#0_0" departPos="5.10" departSpeed="23.27" departDelay="0.26" arrival="222.00" arrivalLane="37915612#1_0" arrivalPos="107.07" arrivalSpeed="22.38" duration="166.00" routeLength="1196.74" waitingTime="70.00" waitingCount="5" stopTime="0.00" timeLoss="121.87" rerouteNo="1" devices="tripinfo_veh14 routing_veh14" vType="veh_passenger" speedFactor="1.05" vaporized=""/>
    <tripinfo id="veh2" depart="8.00" departLane="658342131#0_0" departPos="5.10" departSpeed="28.07" departDelay="0.04" arrival="225.00" arrivalLane="-45050329#4_0" arrivalPos="613.15" arrivalSpeed="27.38" duration="217.00" routeLength="1835.19" waitingTime="94.00" waitingCount="6" stopTime="0.00" timeLoss="150.42" rerouteNo="1" devices="tripinfo_veh2 routing_veh2" vType="veh_passenger" speedFactor="1.01" vaporized=""/>
    <tripinfo id="veh36" depart="144.00" departLane="-37052092#5_0" departPos="5.10" departSpeed="13.96" departDelay="0.68" arrival="225.00" arrivalLane="17221307#1_0" arrivalPos="156.41" arrivalSpeed="13.62" duration="81.00" routeLength="988.37" waitingTime="0.00" waitingCount="0" stopTime="0.00" timeLoss="9.30" rerouteNo="1" devices="tripinfo_veh36 routing_veh36" vType="veh_passenger" speedFactor="1.01" vaporized=""/>
    <tripinfo id="veh8" depart="32.00" departLane="45204087#0_0" departPos="5.10" departSpeed="19.69" departDelay="0.15" arrival="267.00" arrivalLane="1057713529#3_0" arrivalPos="38.04" arrivalSpeed="24.01" duration="235.00" routeLength="1132.34" waitingTime="137.00" waitingCount="5" stopTime="0.00" timeLoss="183.77" rerouteNo="1" devices="tripinfo_veh8 routing_veh8" vType="veh_passenger" speedFactor="0.89" vaporized=""/>
    <tripinfo id="veh3" depart="12.00" departLane="304618246#0_0" departPos="5.10" departSpeed="25.57" departDelay="0.06" arrival="291.00" arrivalLane="-17213698#1_0" arrivalPos="75.49" arrivalSpeed="14.83" duration="279.00" routeLength="1415.68" waitingTime="136.00" waitingCount="8" stopTime="0.00" timeLoss="213.88" rerouteNo="1" devices="tripinfo_veh3 routing_veh3" vType="veh_passenger" speedFactor="1.08" vaporized=""/>
    <tripinfo id="veh57" depart="227.00" departLane="-37052092#5_0" departPos="5.10" departSpeed="13.85" departDelay="0.07" arrival="297.00" arrivalLane="45050329#10_1" arrivalPos="40.43" arrivalSpeed="21.02" duration="70.00" routeLength="860.18" waitingTime="0.00" waitingCount="0" stopTime="0.00" timeLoss="9.58" rerouteNo="1" devices="tripinfo_veh57 routing_veh57" vType="veh_passenger" speedFactor="1.00" vaporized=""/>
    <tripinfo id="veh18" depart="72.00" departLane="-518910430#1_0" departPos="5.10" departSpeed="0.00" departDelay="0.34" arrival="304.00" arrivalLane="17205735#2_1" arrivalPos="7.74" arrivalSpeed="18.32" duration="232.00" routeLength="951.78" waitingTime="135.00" waitingCount="5" stopTime="0.00" timeLoss="189.98" rerouteNo="1" devices="tripinfo_veh18 routing_veh18" vType="veh_passenger" speedFactor="0.93" vaporized=""/>
    <tripinfo id="veh39" depart="156.00" departLane="132400957#2_0" departPos="5.10" departSpeed="0.00" departDelay="0.73" arrival="311.00" arrivalLane="37915612#1_0" arrivalPos="107.07" arrivalSpeed="22.24" duration="155.00" routeLength="1227.77" waitingTime="62.00" waitingCount="4" stopTime="0.00" timeLoss="110.38" rerouteNo="1" devices="tripinfo_veh39 routing_veh39" vType="veh_passenger" speedFactor="0.99" vaporized=""/>
    <tripinfo id="veh4" depart="16.00" departLane="17205224#2_1" departPos="5.10" departSpeed="0.00" departDelay="0.08" arrival="312.00" arrivalLane="306461344#2_0" arrivalPos="17.86" arrivalSpeed="14.18" duration="296.00" routeLength="1498.97" waitingTime="146.00" waitingCount="6" stopTime="0.00" timeLoss="231.49" rerouteNo="1" devices="tripinfo_veh4 routing_veh4" vType="veh_passenger" speedFactor="1.03" vaporized=""/>
    <tripinfo id="veh34" depart="136.00" departLane="-770925915#2_0" departPos="5.10" departSpeed="0.00" departDelay="0.64" arrival="316.00" arrivalLane="37114303#4_0" arrivalPos="27.93" arrivalSpeed="14.03" duration="180.00" routeLength="639.81" waitingTime="124.00" waitingCount="2" stopTime="0.00" timeLoss="159.95" rerouteNo="1" devices="tripinfo_veh34 routing_veh34" vType="veh_passenger" speedFactor="1.18" vaporized=""/>
    <tripinfo id="veh67" depart="267.00" departLane="518910434#0-AddedOnRampEdge_1" departPos="5.10" departSpeed="24.92" departDelay="0.26" arrival="316.00" arrivalLane="45050329#14_0" arrivalPos="19.60" arrivalSpeed="24.66" duration="49.00" routeLength="639.47" waitingTime="0.00" waitingCount="0" stopTime="0.00" timeLoss="13.12" rerouteNo="1" devices="tripinfo_veh67 routing_veh67" vType="veh_passenger" speedFactor="0.90" vaporized=""/>
    <tripinfo id="veh9" depart="36.00" departLane="45090429#5_0" departPos="5.10" departSpeed="0.00" departDelay="0.17" arrival="361.00" arrivalLane="37138017#1_1" arrivalPos="123.83" arrivalSpeed="25.07" duration="325.00" routeLength="1209.35" waitingTime="200.00" waitingCount="7" stopTime="0.00" timeLoss="254.84" rerouteNo="1" devices="tripinfo_veh9 routing_veh9" vType="veh_passenger" speedFactor="0.94" vaporized=""/>
    <tripinfo id="veh26" depart="104.00" departLane="17205224#6_0" departPos="5.10" departSpeed="0.00" departDelay="0.49" arrival="365.00" arrivalLane="-17213698#2_0" arrivalPos="19.59" arrivalSpeed="13.34" duration="261.00" routeLength="633.11" waitingTime="186.00" waitingCount="3" stopTime="0.00" timeLoss="216.82" rerouteNo="1" devices="tripinfo_veh26 routing_veh26" vType="veh_passenger" speedFactor="0.97" vaporized=""/>
    <tripinfo id="veh66" depart="263.00" departLane="37113369#1_0" departPos="5.10" departSpeed="0.00" departDelay="0.24" arrival="373.00" arrivalLane="37114303#7_0" arrivalPos="22.21" arrivalSpeed="24.55" duration="110.00" routeLength="447.50" waitingTime="67.00" waitingCount="1" stopTime="0.00" timeLoss="91.19" rerouteNo="1" devices="tripinfo_veh66 routing_veh66" vType="veh_passenger" speedFactor="1.00" vaporized=""/>
    <tripinfo id="veh76" depart="303.00" departLane="88617178#0_0" departPos="5.10" departSpeed="13.02" departDelay="0.43" arrival="384.00" arrivalLane="-45050329#4_0" arrivalPos="613.15" arrivalSpeed="25.63" duration="81.00" routeLength="1245.03" waitingTime="0.00" waitingCount="0" stopTime="0.00" timeLoss="14.67" rerouteNo="1" devices="tripinfo_veh76 routing_veh76" vType="veh_passenger" speedFactor="0.94" vaporized=""/>
    <tripinfo id="veh48" depart="192.00" departLane="37114312#1_3" departPos="5.10" departSpeed="0.00" departDelay="0.90" arrival="417.00" arrivalLane="1057713529#2_1" arrivalPos="23.96" arrivalSpeed="18.97" duration="225.00" routeLength="412.34" waitingTime="180.00" waitingCount="2" stopTime="0.00" timeLoss="205.50" rerouteNo="1" devices="tripinfo_veh48 routing_veh48" vType="veh_passenger" speedFactor="0.90" vaporized=""/>
    <tripinfo id="veh93" depart="371.00" departLane="-37052092#5_0" departPos="5.10" departSpeed="15.10" departDelay="0.75" arrival="428.00" arrivalLane="-37052092#0_0" arrivalPos="139.46" arrivalSpeed="14.98" duration="57.00" routeLength="812.43" waitingTime="0.00" waitingCount="0" stopTime="0.00" timeLoss="2.27" rerouteNo="1" devices="tripinfo_veh93 routing_veh93" vType="veh_passenger" speedFactor="1.09" vaporized=""/>
    <tripinfo id="veh96" depart="383.00" departLane="37114305#3_0" departPos="0.20" departSpeed="0.00" departDelay="0.80" arrival="435.00" arrivalLane="37136833#3_0" arrivalPos="142.42" arrivalSpeed="26.62" duration="52.00" routeLength="363.79" waitingTime="21.00" waitingCount="1" stopTime="0.00" timeLoss="38.49" rerouteNo="1" devices="tripinfo_veh96 routing_veh96" vType="veh_passenger" speedFactor="1.00" vaporized=""/>
    <tripinfo id="veh35" depart="140.00" departLane="45090429#0_0" departPos="5.10" departSpeed="25.65" departDelay="0.66" arrival="436.00" arrivalLane="25593473#0_0" arrivalPos="141.15" arrivalSpeed="22.74" duration="296.00" routeLength="999.52" waitingTime="209.00" waitingCount="4" stopTime="0.00" timeLoss="246.57" rerouteNo="1" devices="tripinfo_veh35 routing_veh35" vType="veh_passenger" speedFactor="1.15" vaporized=""/>
    <tripinfo id="veh30" depart="120.00" departLane="-37052092#3_0" departPos="5.10" departSpeed="0.00" departDelay="0.56" arrival="441.00" arrivalLane="17205224#3_1" arrivalPos="12.69" arrivalSpeed="14.90" duration="321.00" routeLength="862.97" waitingTime="217.00" waitingCount="4" stopTime="0.00" timeLoss="271.83" rerouteNo="1" devices="tripinfo_veh30 routing_veh30" vType="veh_passenger" speedFactor="0.92" vaporized=""/>
    <tripinfo id="veh13" depart="52.00" departLane="518910434#0-AddedOnRampEdge_1" departPos="5.10" departSpeed="24.92" departDelay="0.24" arrival="444.00" arrivalLane="37054458#1_0" arrivalPos="54.00" arrivalSpeed="16.23" duration="392.00" routeLength="1436.28" waitingTime="250.00" waitingCount="10" stopTime="0.00" timeLoss="329.72" rerouteNo="1" devices="tripinfo_veh13 routing_veh13" vType="veh_passenger" speedFactor="1.03" vaporized=""/>
    <tripinfo id="veh0" depart="0.00" departLane="37915614#2_0" departPos="5.10" departSpeed="0.00" departDelay="0.00" arrival="447.00" arrivalLane="-132400957#2_0" arrivalPos="9.93" arrivalSpeed="27.06" duration="447.00" routeLength="1281.99" waitingTime="320.00" waitingCount="7" stopTime="0.00" timeLoss="394.91" rerouteNo="1" devices="tripinfo_veh0 routing_veh0" vType="veh_passenger" speedFactor="1.06" vaporized=""/>
    <tripinfo id="veh21" depart="84.00" departLane="39275723#0_0" departPos="5.10" departSpeed="26.15" departDelay="0.39" arrival="451.00" arrivalLane="37054458#3_1" arrivalPos="52.32" arrivalSpeed="6.49" duration="367.00" routeLength="1299.81" waitingTime="235.00" waitingCount="7" stopTime="0.00" timeLoss="303.16" rerouteNo="1" devices="tripinfo_veh21 routing_veh21" vType="veh_passenger" speedFactor="0.94" vaporized=""/>
    <tripinfo id="veh72" depart="287.00" departLane="45204087#0_0" departPos="5.10" departSpeed="24.05" departDelay="0.35" arrival="478.00" arrivalLane="132400907#1_1" arrivalPos="142.32" arrivalSpeed="25.34" duration="191.00" routeLength="1059.10" waitingTime="98.00" waitingCount="6" stopTime="0.00" timeLoss="151.44" rerouteNo="1" devices="tripinfo_veh72 routing_veh72" vType="veh_passenger" speedFactor="1.08" vaporized=""/>
    <tripinfo id="veh46" depart="184.00" departLane="658342131#2_1" departPos="5.10" departSpeed="0.00" departDelay="0.86" arrival="480.00" arrivalLane="658526864#7_1" arrivalPos="74.64" arrivalSpeed="26.06" duration="296.00" routeLength="1242.01" waitingTime="186.00" waitingCount="5" stopTime="0.00" timeLoss="252.90" rerouteNo="1" devices="tripinfo_veh46 routing_veh46" vType="veh_passenger" speedFactor="1.10" vaporized=""/>
    <tripinfo id="veh5" depart="20.00" departLane="-17221307#1_0" departPos="5.10" departSpeed="11.54" departDelay="0.09" arrival="483.00" arrivalLane="132400907#1_1" arrivalPos="142.32" arrivalSpeed="22.98" duration="463.00" routeLength="1538.19" waitingTime="296.00" waitingCount="9" stopTime="0.00" timeLoss="377.54" rerouteNo="1" devices="tripinfo_veh5 routing_veh5" vType="veh_passenger" speedFactor="0.83" vaporized=""/>
    <tripinfo id="veh74" depart="295.00" departLane="304618246#0_1" departPos="5.10" departSpeed="25.57" departDelay="0.39" arrival="489.00" arrivalLane="294561112#19_1" arrivalPos="152.07" arrivalSpeed="21.81" duration="194.00" routeLength="537.74" waitingTime="152.00" waitingCount="2" stopTime="0.00" timeLoss="170.95" rerouteNo="1" devices="tripinfo_veh74 routing_veh74" vType="veh_passenger" speedFactor="1.02" vaporized=""/>
    <tripinfo id="veh60" depart="239.00" departLane="37051824#0_1" departPos="5.10" departSpeed="23.62" departDelay="0.13" arrival="491.00" arrivalLane="37915612#1_0" arrivalPos="107.07" arrivalSpeed="23.28" duration="252.00" routeLength="699.56" waitingTime="185.00" waitingCount="4" stopTime="0.00" timeLoss="218.24" rerouteNo="1" devices="tripinfo_veh60 routing_veh60" vType="veh_passenger" speedFactor="0.85" vaporized=""/>
    <tripinfo id="veh81" depart="323.00" departLane="304618246#0_1" departPos="5.10" departSpeed="24.15" departDelay="0.52" arrival="494.00" arrivalLane="658526864#1_1" arrivalPos="107.08" arrivalSpeed="21.13" duration="171.00" routeLength="484.12" waitingTime="131.00" waitingCount="1" stopTime="0.00" timeLoss="153.22" rerouteNo="1" devices="tripinfo_veh81 routing_veh81" vType="veh_passenger" speedFactor="1.04" vaporized=""/>
    <tripinfo id="veh43" depart="172.00" departLane="304618246#0_0" departPos="5.10" departSpeed="25.57" departDelay="0.81" arrival="508.00" arrivalLane="770925908_1" arrivalPos="20.77" arrivalSpeed="14.68" duration="336.00" routeLength="980.14" waitingTime="260.00" waitingCount="4" stopTime="0.00" timeLoss="304.50" rerouteNo="1" devices="tripinfo_veh43 routing_veh43" vType="veh_passenger" speedFactor="1.18" vaporized=""/>
    <tripinfo id="veh27" depart="108.00" departLane="249305447#0_1" departPos="5.10" departSpeed="24.71" departDelay="0.51" arrival="520.00" arrivalLane="17205224#5_0" arrivalPos="19.24" arrivalSpeed="24.17" duration="412.00" routeLength="1195.83" waitingTime="296.00" waitingCount="6" stopTime="0.00" timeLoss="360.24" rerouteNo="1" devices="tripinfo_veh27 routing_veh27" vType="veh_passenger" speedFactor="0.89" vaporized=""/>
    <tripinfo id="veh69" depart="275.00" departLane="17205224#0_0" departPos="5.10" departSpeed="0.00" departDelay="0.30" arrival="522.00" arrivalLane="-88617178#0_0" arrivalPos="126.32" arrivalSpeed="14.11" duration="247.00" routeLength="984.53" waitingTime="158.00" waitingCount="3" stopTime="0.00" timeLoss="195.14" rerouteNo="1" devices="tripinfo_veh69 routing_veh69" vType="veh_passenger" speedFactor="1.02" vaporized=""/>
    <tripinfo id="veh80" depart="319.00" departLane="304618246#0_0" departPos="5.10" departSpeed="25.41" departDelay="0.50" arrival="539.00" arrivalLane="17205735#2_1" arrivalPos="7.74" arrivalSpeed="19.94" duration="220.00" routeLength="979.77" waitingTime="125.00" waitingCount="5" stopTime="0.00" timeLoss="179.57" rerouteNo="1" devices="tripinfo_veh80 routing_veh80" vType="veh_passenger" speedFactor="0.91" vaporized=""/>
    <tripinfo id="veh73" depart="291.00" departLane="45204238#1_0" departPos="5.10" departSpeed="0.00" departDelay="0.37" arrival="545.00" arrivalLane="294443279#1_0" arrivalPos="60.57" arrivalSpeed="19.92" duration="254.00" routeLength="1122.17" waitingTime="159.00" waitingCount="5" stopTime="0.00" timeLoss="215.40" rerouteNo="1" devices="tripinfo_veh73 routing_veh73" vType="veh_passenger" speedFactor="1.12" vaporized=""/>
    <tripinfo id="veh17" depart="68.00" departLane="518910434#0-AddedOnRampEdge_1" departPos="5.10" departSpeed="23.51" departDelay="0.32" arrival="547.00" arrivalLane="37051419#5_0" arrivalPos="56.72" arrivalSpeed="12.69" duration="479.00" routeLength="1527.85" waitingTime="332.00" waitingCount="7" stopTime="0.00" timeLoss="402.12" rerouteNo="1" devices="tripinfo_veh17 routing_veh17" vType="veh_passenger" speedFactor="0.99" vaporized=""/>
    <tripinfo id="veh100" depart="399.00" departLane="304618246#0_0" departPos="5.10" departSpeed="24.58" departDelay="0.88" arrival="551.00" arrivalLane="37052092#0_0" arrivalPos="139.46" arrivalSpeed="13.06" duration="152.00" routeLength="1087.69" waitingTime="55.00" waitingCount="1" stopTime="0.00" timeLoss="104.56" rerouteNo="1" devices="tripinfo_veh100 routing_veh100" vType="veh_passenger" speedFactor="0.98" vaporized=""/>
    <tripinfo id="veh92" depart="367.00" departLane="37051824#0_1" departPos="5.10" departSpeed="27.98" departDelay="0.73" arrival="560.00" arrivalLane="39606271#4_0" arrivalPos="36.44" arrivalSpeed="13.32" duration="193.00" routeLength="1040.94" waitingTime="111.00" waitingCount="3" stopTime="0.00" timeLoss="145.95" rerouteNo="1" devices="tripinfo_veh92 routing_veh92" vType="veh_passenger" speedFactor="1.01" vaporized=""/>
    <tripinfo id="veh31" depart="124.00" departLane="37114303#2_0" departPos="5.10" departSpeed="0.00" departDelay="0.58" arrival="566.00" arrivalLane="658527085#2_0" arrivalPos="13.85" arrivalSpeed="23.87" duration="442.00" routeLength="1576.34" waitingTime="275.00" waitingCount="8" stopTime="0.00" timeLoss="366.91" rerouteNo="1" devices="tripinfo_veh31 routing_veh31" vType="veh_passenger" speedFactor="0.95" vaporized=""/>
    <tripinfo id="veh64" depart="255.00" departLane="249305447#0_1" departPos="5.10" departSpeed="30.33" departDelay="0.20" arrival="579.00" arrivalLane="37052092#3_0" arrivalPos="33.34" arrivalSpeed="14.30" duration="324.00" routeLength="1563.91" waitingTime="194.00" waitingCount="5" stopTime="0.00" timeLoss="257.85" rerouteNo="1" devices="tripinfo_veh64 routing_veh64" vType="veh_passenger" speedFactor="1.10" vaporized=""/>
    <tripinfo id="veh41" depart="164.00" departLane="17208008#1_1" departPos="0.20" departSpeed="0.00" departDelay="0.77" arrival="582.00" arrivalLane="37114305#5_0" arrivalPos="8.50" arrivalSpeed="19.43" duration="418.00" routeLength="960.49" waitingTime="315.00" waitingCount="6" stopTime="0.00" timeLoss="379.27" rerouteNo="1" devices="tripinfo_veh41 routing_veh41" vType="veh_passenger" speedFactor="1.02" vaporized=""/>
    <tripinfo id="veh107" depart="426.00" departLane="657760073_0" departPos="5.10" departSpeed="0.00" departDelay="0.01" arrival="590.00" arrivalLane="658526876#1_0" arrivalPos="15.27" arrivalSpeed="12.04" duration="164.00" routeLength="1071.52" waitingTime="65.00" waitingCount="3" stopTime="0.00" timeLoss="114.77" rerouteNo="1" devices="tripinfo_veh107 routing_veh107" vType="veh_passenger" speedFactor="0.83" vaporized=""/>
    <tripinfo id="veh70" depart="279.00" departLane="658526876#3_0" departPos="5.10" departSpeed="0.00" departDelay="0.32" arrival="595.00" arrivalLane="37051419#5_0" arrivalPos="56.72" arrivalSpeed="12.30" duration="316.00" routeLength="1252.93" waitingTime="175.00" waitingCount="7" stopTime="0.00" timeLoss="249.07" rerouteNo="1" devices="tripinfo_veh70 routing_veh70" vType="veh_passenger" speedFactor="0.97" vaporized=""/>
    <tripinfo id="veh52" depart="208.00" departLane="-17213698#3_0" departPos="5.10" departSpeed="0.00" departDelay="0.98" arrival="596.00" arrivalLane="770925905#3_1" arrivalPos="5.31" arrivalSpeed="23.78" duration="388.00" routeLength="1536.39" waitingTime="249.00" waitingCount="6" stopTime="0.00" timeLoss="310.82" rerouteNo="1" devices="tripinfo_veh52 routing_veh52" vType="veh_passenger" speedFactor="0.96" vaporized=""/>
    <tripinfo id="veh105" depart="419.00" departLane="37113369#3_0" departPos="5.10" departSpeed="0.00" departDelay="0.97" arrival="603.00" arrivalLane="294561112#18_0" arrivalPos="2.07" arrivalSpeed="6.62" duration="184.00" routeLength="506.27" waitingTime="126.00" waitingCount="3" stopTime="0.00" timeLoss="162.86" rerouteNo="1" devices="tripinfo_veh105 routing_veh105" vType="veh_passenger" speedFactor="1.02" vaporized=""/>
    <tripinfo id="veh51" depart="204.00" departLane="-1057713529#0_1" departPos="5.10" departSpeed="0.00" departDelay="0.96" arrival="605.00" arrivalLane="17213444#1_1" arrivalPos="132.58" arrivalSpeed="25.13" duration="401.00" routeLength="1078.61" waitingTime="275.00" waitingCount="8" stopTime="0.00" timeLoss="356.39" rerouteNo="1" devices="tripinfo_veh51 routing_veh51" vType="veh_passenger" speedFactor="1.03" vaporized=""/>
    <tripinfo id="veh61" depart="243.00" departLane="17205222#4_0" departPos="1.35" departSpeed="0.00" departDelay="0.15" arrival="605.00" arrivalLane="17213444#1_0" arrivalPos="132.58" arrivalSpeed="22.79" duration="362.00" routeLength="960.35" waitingTime="250.00" waitingCount="7" stopTime="0.00" timeLoss="313.02" rerouteNo="1" devices="tripinfo_veh61 routing_veh61" vType="veh_passenger" speedFactor="0.85" vaporized=""/>
    <tripinfo id="veh78" depart="311.00" departLane="518910434#0-AddedOnRampEdge_1" departPos="5.10" departSpeed="24.51" departDelay="0.47" arrival="607.00" arrivalLane="17205222#6_1" arrivalPos="7.04" arrivalSpeed="18.63" duration="296.00" routeLength="571.54" waitingTime="248.00" waitingCount="2" stopTime="0.00" timeLoss="270.00" rerouteNo="1" devices="tripinfo_veh78 routing_veh78" vType="veh_passenger" speedFactor="0.88" vaporized=""/>
    <tripinfo id="veh28" depart="112.00" departLane="39275723#0_0" departPos="5.10" departSpeed="22.94" departDelay="0.53" arrival="610.00" arrivalLane="17227246#1_0" arrivalPos="106.81" arrivalSpeed="22.28" duration="498.00" routeLength="1277.73" waitingTime="368.00" waitingCount="7" stopTime="0.00" timeLoss="426.75" rerouteNo="1" devices="tripinfo_veh28 routing_veh28" vType="veh_passenger" speedFactor="0.83" vaporized=""/>
    <tripinfo id="veh54" depart="215.00" departLane="249270974#1_0" departPos="5.10" departSpeed="0.00" departDelay="0.01" arrival="611.00" arrivalLane="37113369#1_0" arrivalPos="56.96" arrivalSpeed="17.27" duration="396.00" routeLength="1460.53" waitingTime="245.00" waitingCount="8" stopTime="0.00" timeLoss="336.09" rerouteNo="1" devices="tripinfo_veh54 routing_veh54" vType="veh_passenger" speedFactor="1.04" vaporized=""/>
    <tripinfo id="veh104" depart="415.00" departLane="249305447#0_1" departPos="5.10" departSpeed="28.39" departDelay="0.95" arrival="612.00" arrivalLane="39606271#5_0" arrivalPos="19.97" arrivalSpeed="15.95" duration="197.00" routeLength="1053.84" waitingTime="94.00" waitingCount="5" stopTime="0.00" timeLoss="151.95" rerouteNo="1" devices="tripinfo_veh104 routing_veh104" vType="veh_passenger" speedFactor="1.02" vaporized=""/>
    <tripinfo id="veh121" depart="482.00" departLane="37915614#1_1" departPos="5.10" departSpeed="0.00" departDelay="0.27" arrival="628.00" arrivalLane="17205224#3_0" arrivalPos="12.69" arrivalSpeed="23.81" duration="146.00" routeLength="550.30" waitingTime="92.00" waitingCount="3" stopTime="0.00" timeLoss="122.76" rerouteNo="1" devices="tripinfo_veh121 routing_veh121" vType="veh_passenger" speedFactor="0.89" vaporized=""/>
    <tripinfo id="veh89" depart="355.00" departLane="37051828#1_0" departPos="5.10" departSpeed="0.00" departDelay="0.67" arrival="641.00" arrivalLane="37915612#1_0" arrivalPos="107.07" arrivalSpeed="23.81" duration="286.00" routeLength="1793.40" waitingTime="132.00" waitingCount="5" stopTime="0.00" timeLoss="191.26" rerouteNo="1" devices="tripinfo_veh89 routing_veh89" vType="veh_passenger" speedFactor="0.98" vaporized=""/>
    <tripinfo id="veh128" depart="510.00" departLane="17205735#9_0" departPos="2.16" departSpeed="0.00" departDelay="0.40" arrival="643.00" arrivalLane="-45050329#5_0" arrivalPos="95.04" arrivalSpeed="25.42" duration="133.00" routeLength="439.50" waitingTime="100.00" waitingCount="3" stopTime="0.00" timeLoss="115.67" rerouteNo="1" devices="tripinfo_veh128 routing_veh128" vType="veh_passenger" speedFactor="0.96" vaporized=""/>
    <tripinfo id="veh88" depart="351.00" departLane="304618246#0_0" departPos="5.10" departSpeed="25.57" departDelay="0.65" arrival="651.00" arrivalLane="25593473#0_1" arrivalPos="141.15" arrivalSpeed="9.25" duration="300.00" routeLength="922.19" waitingTime="214.00" waitingCount="3" stopTime="0.00" timeLoss="257.62" rerouteNo="1" devices="tripinfo_veh88 routing_veh88" vType="veh_passenger" speedFactor="0.96" vaporized=""/>
    <tripinfo id="veh23" depart="285.00" departLane="1057713533#1_0" departPos="0.20" departSpeed="0.00" departDelay="193.43" arrival="653.00" arrivalLane="17221307#1_0" arrivalPos="156.41" arrivalSpeed="15.00" duration="368.00" routeLength="1063.28" waitingTime="259.00" waitingCount="6" stopTime="0.00" timeLoss="326.16" rerouteNo="1" devices="tripinfo_veh23 routing_veh23" vType="veh_passenger" speedFactor="1.16" vaporized=""/>
    <tripinfo id="veh90" depart="359.00" departLane="-1057713529#3_1" departPos="5.10" departSpeed="0.00" departDelay="0.69" arrival="658.00" arrivalLane="17206470#6_0" arrivalPos="84.06" arrivalSpeed="13.83" duration="299.00" routeLength="1090.85" waitingTime="175.00" waitingCount="5" stopTime="0.00" timeLoss="246.21" rerouteNo="1" devices="tripinfo_veh90 routing_veh90" vType="veh_passenger" speedFactor="1.03" vaporized=""/>
    <tripinfo id="veh1" depart="4.00" departLane="45050329#0_1" departPos="5.10" departSpeed="26.07" departDelay="0.02" arrival="660.00" arrivalLane="37136833#3_0" arrivalPos="142.42" arrivalSpeed="25.51" duration="656.00" routeLength="2264.93" waitingTime="481.00" waitingCount="8" stopTime="0.00" timeLoss="566.30" rerouteNo="1" devices="tripinfo_veh1 routing_veh1" vType="veh_passenger" speedFactor="0.94" vaporized=""/>
    <tripinfo id="veh97" depart="387.00" departLane="17205735#1_0" departPos="5.10" departSpeed="0.00" departDelay="0.82" arrival="660.00" arrivalLane="-554745331#1_0" arrivalPos="12.78" arrivalSpeed="12.07" duration="273.00" routeLength="729.33" waitingTime="203.00" waitingCount="3" stopTime="0.00" timeLoss="244.70" rerouteNo="1" devices="tripinfo_veh97 routing_veh97" vType="veh_passenger" speedFactor="1.02" vaporized=""/>
    <tripinfo id="veh82" depart="327.00" departLane="37051824#0_1" departPos="5.10" departSpeed="28.39" departDelay="0.54" arrival="663.00" arrivalLane="37052092#0_0" arrivalPos="139.46" arrivalSpeed="13.90" duration="336.00" routeLength="1427.18" waitingTime="210.00" waitingCount="6" stopTime="0.00" timeLoss="274.78" rerouteNo="1" devices="tripinfo_veh82 routing_veh82" vType="veh_passenger" speedFactor="1.02" vaporized=""/>
    <tripinfo id="veh156" depart="622.00" departLane="249305447#0_0" departPos="5.10" departSpeed="28.11" departDelay="0.93" arrival="664.00" arrivalLane="656618859#2_0" arrivalPos="137.29" arrivalSpeed="24.28" duration="42.00" routeLength="382.97" waitingTime="12.00" waitingCount="1" stopTime="0.00" timeLoss="27.30" rerouteNo="1" devices="tripinfo_veh156 routing_veh156" vType="veh_passenger" speedFactor="1.01" vaporized=""/>
    <tripinfo id="veh98" depart="391.00" departLane="658342131#0_0" departPos="5.10" departSpeed="26.86" departDelay="0.84" arrival="666.00" arrivalLane="17205222#6_1" arrivalPos="7.04" arrivalSpeed="19.32" duration="275.00" routeLength="903.01" waitingTime="205.00" waitingCount="3" stopTime="0.00" timeLoss="240.20" rerouteNo="1" devices="tripinfo_veh98 routing_veh98" vType="veh_passenger" speedFactor="0.97" vaporized=""/>
    <tripinfo id="veh10" depart="40.00" departLane="249305447#0_1" departPos="5.10" departSpeed="23.80" departDelay="0.19" arrival="669.00" arrivalLane="1057713529#3_1" arrivalPos="38.04" arrivalSpeed="23.79" duration="629.00" routeLength="1436.74" waitingTime="485.00" waitingCount="9" stopTime="0.00" timeLoss="564.82" rerouteNo="1" devices="tripinfo_veh10 routing_veh10" vType="veh_passenger" speedFactor="0.86" vaporized=""/>