<?xml version="1.0" encoding="UTF-8"?>

<!-- generated on 2023-12-19 01:53:41 by Eclipse SUMO sumo Version 1.19.0
<configuration xmlns:xsi="http://www.w3.org/2001/XMLSchema-instance" xsi:noNamespaceSchemaLocation="http://sumo.dlr.de/xsd/sumoConfiguration.xsd">

    <input>
        <net-file value="sumo/simulation.net.xml"/>
        <route-files value="sumo/osm.passenger.trips.xml"/>
        <additional-files value="sumo/osm.poly.xml.gz"/>
    </input>

    <output>
        <tripinfo-output value="sumo/simulation_tripinfo.xml"/>
    </output>

    <processing>
        <ignore-route-errors value="true"/>
    </processing>

    <routing>
        <device.rerouting.adaptation-steps value="18"/>
        <device.rerouting.adaptation-interval value="10"/>
    </routing>

    <report>
        <verbose value="true"/>
        <no-warnings value="true"/>
        <duration-log.statistics value="true"/>
        <no-step-log value="true"/>
    </report>

    <traci_server>
        <remote-port value="55816"/>
    </traci_server>

    <gui_only>
        <gui-settings-file value="sumo/osm.view.xml"/>
    </gui_only>

</configuration>
-->

<tripinfos xmlns:xsi="http://www.w3.org/2001/XMLSchema-instance" xsi:noNamespaceSchemaLocation="http://sumo.dlr.de/xsd/tripinfo_file.xsd">
    <tripinfo id="veh29" depart="36.00" departLane="889425358#1_2" departPos="5.10" departSpeed="0.00" departDelay="0.58" arrival="142.00" arrivalLane="37051419#5_0" arrivalPos="52.06" arrivalSpeed="13.09" duration="106.00" routeLength="683.13" waitingTime="42.00" waitingCount="1" stopTime="0.00" timeLoss="61.37" rerouteNo="1" devices="tripinfo_veh29 routing_veh29" vType="veh_passenger" speedFactor="0.95" vaporized=""/>
    <tripinfo id="veh0" depart="0.00" departLane="37051824#2_0" departPos="5.10" departSpeed="0.00" departDelay="0.00" arrival="197.00" arrivalLane="-17209803#3_0" arrivalPos="42.00" arrivalSpeed="14.86" duration="197.00" routeLength="811.90" waitingTime="110.00" waitingCount="6" stopTime="0.00" timeLoss="165.18" rerouteNo="1" devices="tripinfo_veh0 routing_veh0" vType="veh_passenger" speedFactor="1.06" vaporized=""/>
    <tripinfo id="veh4" depart="5.00" departLane="1106807198#1_1" departPos="5.10" departSpeed="0.00" departDelay="0.11" arrival="197.00" arrivalLane="271363702#1_0" arrivalPos="46.75" arrivalSpeed="15.78" duration="192.00" routeLength="611.92" waitingTime="132.00" waitingCount="3" stopTime="0.00" timeLoss="168.50" rerouteNo="1" devices="tripinfo_veh4 routing_veh4" vType="veh_passenger" speedFactor="1.08" vaporized=""/>
    <tripinfo id="veh90" depart="110.00" departLane="17227712#0_0" departPos="5.10" departSpeed="13.56" departDelay="0.08" arrival="217.00" arrivalLane="52095236#4_0" arrivalPos="179.42" arrivalSpeed="21.54" duration="107.00" routeLength="894.60" waitingTime="40.00" waitingCount="1" stopTime="0.00" timeLoss="53.84" rerouteNo="1" devices="tripinfo_veh90 routing_veh90" vType="veh_passenger" speedFactor="0.98" vaporized=""/>
    <tripinfo id="veh11" depart="14.00" departLane="658581086#1_1" departPos="5.10" departSpeed="0.00" departDelay="0.57" arrival="256.00" arrivalLane="17218405#5_0" arrivalPos="4.25" arrivalSpeed="13.99" duration="242.00" routeLength="895.92" waitingTime="143.00" waitingCount="4" stopTime="0.00" timeLoss="200.99" rerouteNo="1" devices="tripinfo_veh11 routing_veh11" vType="veh_passenger" speedFactor="1.09" vaporized=""/>
    <tripinfo id="veh40" depart="49.00" departLane="987561406#0_0" departPos="5.10" departSpeed="0.00" departDelay="0.15" arrival="271.00" arrivalLane="28866897#1_0" arrivalPos="17.46" arrivalSpeed="11.96" duration="222.00" routeLength="726.16" waitingTime="138.00" waitingCount="4" stopTime="0.00" timeLoss="180.14" rerouteNo="1" devices="tripinfo_veh40 routing_veh40" vType="veh_passenger" speedFactor="0.97" vaporized=""/>
    <tripinfo id="veh108" depart="132.00" departLane="132400907#1_0" departPos="5.10" departSpeed="0.00" departDelay="0.09" arrival="287.00" arrivalLane="-39360681#0_0" arrivalPos="19.11" arrivalSpeed="16.13" duration="155.00" routeLength="614.92" waitingTime="84.00" waitingCount="3" stopTime="0.00" timeLoss="122.53" rerouteNo="1" devices="tripinfo_veh108 routing_veh108" vType="veh_passenger" speedFactor="0.95" vaporized=""/>
    <tripinfo id="veh3" depart="4.00" departLane="17225655#0_0" departPos="5.10" departSpeed="28.07" departDelay="0.34" arrival="300.00" arrivalLane="-17212629#1_0" arrivalPos="67.19" arrivalSpeed="21.63" duration="296.00" routeLength="986.41" waitingTime="208.00" waitingCount="5" stopTime="0.00" timeLoss="257.59" rerouteNo="1" devices="tripinfo_veh3 routing_veh3" vType="veh_passenger" speedFactor="1.01" vaporized=""/>
    <tripinfo id="veh195" depart="239.00" departLane="-770925915#4_0" departPos="5.10" departSpeed="29.97" departDelay="0.84" arrival="306.00" arrivalLane="770925905#2_0" arrivalPos="103.31" arrivalSpeed="23.13" duration="67.00" routeLength="598.26" waitingTime="34.00" waitingCount="1" stopTime="0.00" timeLoss="45.99" rerouteNo="1" devices="tripinfo_veh195 routing_veh195" vType="veh_passenger" speedFactor="1.08" vaporized=""/>
    <tripinfo id="veh77" depart="95.00" departLane="132400907#2_0" departPos="5.10" departSpeed="0.00" departDelay="0.96" arrival="318.00" arrivalLane="37052278_1" arrivalPos="130.64" arrivalSpeed="24.80" duration="223.00" routeLength="748.31" waitingTime="144.00" waitingCount="3" stopTime="0.00" timeLoss="187.03" rerouteNo="1" devices="tripinfo_veh77 routing_veh77" vType="veh_passenger" speedFactor="1.06" vaporized=""/>
    <tripinfo id="veh5" depart="7.00" departLane="-168728317#1_0" departPos="5.10" departSpeed="14.31" departDelay="0.89" arrival="319.00" arrivalLane="132400906#1_0" arrivalPos="93.45" arrivalSpeed="23.20" duration="312.00" routeLength="1260.62" waitingTime="210.00" waitingCount="4" stopTime="0.00" timeLoss="258.64" rerouteNo="1" devices="tripinfo_veh5 routing_veh5" vType="veh_passenger" speedFactor="1.03" vaporized=""/>
    <tripinfo id="veh60" depart="74.00" departLane="-132400906#1_1" departPos="5.10" departSpeed="0.00" departDelay="0.72" arrival="319.00" arrivalLane="658581209#0_1" arrivalPos="5.61" arrivalSpeed="6.03" duration="245.00" routeLength="637.63" waitingTime="169.00" waitingCount="3" stopTime="0.00" timeLoss="208.41" rerouteNo="1" devices="tripinfo_veh60 routing_veh60" vType="veh_passenger" speedFactor="0.90" vaporized=""/>
    <tripinfo id="veh135" depart="165.00" departLane="624163581#0_2" departPos="5.10" departSpeed="12.50" departDelay="0.12" arrival="330.00" arrivalLane="294561112#10_1" arrivalPos="28.84" arrivalSpeed="21.53" duration="165.00" routeLength="642.95" waitingTime="87.00" waitingCount="4" stopTime="0.00" timeLoss="130.65" rerouteNo="1" devices="tripinfo_veh135 routing_veh135" vType="veh_passenger" speedFactor="1.12" vaporized=""/>
    <tripinfo id="veh82" depart="101.00" departLane="17225655#0_1" departPos="5.10" departSpeed="27.98" departDelay="0.85" arrival="331.00" arrivalLane="249305446#1_1" arrivalPos="135.53" arrivalSpeed="5.77" duration="230.00" routeLength="940.74" waitingTime="136.00" waitingCount="6" stopTime="0.00" timeLoss="194.67" rerouteNo="1" devices="tripinfo_veh82 routing_veh82" vType="veh_passenger" speedFactor="1.01" vaporized=""/>
    <tripinfo id="veh171" depart="209.00" departLane="37136834#3_0" departPos="5.10" departSpeed="0.00" departDelay="0.15" arrival="337.00" arrivalLane="17212141#1_2" arrivalPos="13.03" arrivalSpeed="21.04" duration="128.00" routeLength="324.34" waitingTime="89.00" waitingCount="2" stopTime="0.00" timeLoss="116.00" rerouteNo="1" devices="tripinfo_veh171 routing_veh171" vType="veh_passenger" speedFactor="0.99" vaporized=""/>
    <tripinfo id="veh182" depart="223.00" departLane="39435491#0_0" departPos="5.10" departSpeed="25.38" departDelay="0.71" arrival="343.00" arrivalLane="1097215715#4_0" arrivalPos="366.97" arrivalSpeed="31.60" duration="120.00" routeLength="682.20" waitingTime="84.00" waitingCount="1" stopTime="0.00" timeLoss="95.53" rerouteNo="1" devices="tripinfo_veh182 routing_veh182" vType="veh_passenger" speedFactor="1.14" vaporized=""/>
    <tripinfo id="veh188" depart="230.00" departLane="132400907#5_0" departPos="5.10" departSpeed="0.00" departDelay="0.39" arrival="345.00" arrivalLane="249305448#5_1" arrivalPos="46.38" arrivalSpeed="24.63" duration="115.00" routeLength="667.87" waitingTime="40.00" waitingCount="4" stopTime="0.00" timeLoss="83.23" rerouteNo="1" devices="tripinfo_veh188 routing_veh188" vType="veh_passenger" speedFactor="1.06" vaporized=""/>
    <tripinfo id="veh72" depart="88.00" departLane="-37052278_0" departPos="5.10" departSpeed="28.89" departDelay="0.06" arrival="350.00" arrivalLane="132400966#1_1" arrivalPos="53.16" arrivalSpeed="14.99" duration="262.00" routeLength="730.37" waitingTime="195.00" waitingCount="4" stopTime="0.00" timeLoss="236.63" rerouteNo="1" devices="tripinfo_veh72 routing_veh72" vType="veh_passenger" speedFactor="1.04" vaporized=""/>
    <tripinfo id="veh67" depart="82.00" departLane="17225655#0_1" departPos="5.10" departSpeed="27.42" departDelay="0.17" arrival="359.00" arrivalLane="132400907#6_0" arrivalPos="7.38" arrivalSpeed="23.46" duration="277.00" routeLength="1060.98" waitingTime="185.00" waitingCount="5" stopTime="0.00" timeLoss="235.88" rerouteNo="1" devices="tripinfo_veh67 routing_veh67" vType="veh_passenger" speedFactor="0.99" vaporized=""/>
    <tripinfo id="veh101" depart="125.00" departLane="658581240#0_2" departPos="5.10" departSpeed="0.00" departDelay="1.64" arrival="361.00" arrivalLane="304618246#4_2" arrivalPos="31.83" arrivalSpeed="4.81" duration="236.00" routeLength="483.12" waitingTime="173.00" waitingCount="1" stopTime="0.00" timeLoss="196.24" rerouteNo="1" devices="tripinfo_veh101 routing_veh101" vType="veh_passenger" speedFactor="1.01" vaporized=""/>
    <tripinfo id="veh111" depart="136.00" departLane="292256996#3_2" departPos="5.10" departSpeed="0.00" departDelay="0.43" arrival="365.00" arrivalLane="658581240#1_1" arrivalPos="13.95" arrivalSpeed="11.31" duration="229.00" routeLength="1182.59" waitingTime="115.00" waitingCount="5" stopTime="0.00" timeLoss="182.89" rerouteNo="1" devices="tripinfo_veh111 routing_veh111" vType="veh_passenger" speedFactor="1.07" vaporized=""/>
    <tripinfo id="veh102" depart="125.00" departLane="293638419#2_1" departPos="5.10" departSpeed="0.00" departDelay="0.42" arrival="386.00" arrivalLane="37138017#3_0" arrivalPos="107.59" arrivalSpeed="24.65" duration="261.00" routeLength="1079.39" waitingTime="169.00" waitingCount="4" stopTime="0.00" timeLoss="213.20" rerouteNo="1" devices="tripinfo_veh102 routing_veh102" vType="veh_passenger" speedFactor="0.91" vaporized=""/>
    <tripinfo id="veh34" depart="42.00" departLane="37054455#2_0" departPos="5.10" departSpeed="0.00" departDelay="0.47" arrival="393.00" arrivalLane="17227246#1_1" arrivalPos="106.81" arrivalSpeed="21.30" duration="351.00" routeLength="914.23" waitingTime="247.00" waitingCount="6" stopTime="0.00" timeLoss="308.21" rerouteNo="1" devices="tripinfo_veh34 routing_veh34" vType="veh_passenger" speedFactor="1.01" vaporized=""/>
    <tripinfo id="veh98" depart="120.00" departLane="186873193_1" departPos="5.10" departSpeed="0.00" departDelay="0.31" arrival="404.00" arrivalLane="23322421#1_0" arrivalPos="90.87" arrivalSpeed="22.35" duration="284.00" routeLength="442.08" waitingTime="226.00" waitingCount="3" stopTime="0.00" timeLoss="249.37" rerouteNo="1" devices="tripinfo_veh98 routing_veh98" vType="veh_passenger" speedFactor="0.92" vaporized=""/>
    <tripinfo id="veh183" depart="224.00" departLane="-263453002#1_0" departPos="5.10" departSpeed="13.28" departDelay="0.49" arrival="410.00" arrivalLane="292256996#2_1" arrivalPos="24.49" arrivalSpeed="14.17" duration="186.00" routeLength="1079.95" waitingTime="98.00" waitingCount="1" stopTime="0.00" timeLoss="123.44" rerouteNo="1" devices="tripinfo_veh183 routing_veh183" vType="veh_passenger" speedFactor="0.96" vaporized=""/>
    <tripinfo id="veh58" depart="71.00" departLane="39362439#3_2" departPos="5.10" departSpeed="0.00" departDelay="0.16" arrival="418.00" arrivalLane="293638418#2_1" arrivalPos="24.57" arrivalSpeed="15.18" duration="347.00" routeLength="1162.41" waitingTime="220.00" waitingCount="7" stopTime="0.00" timeLoss="301.22" rerouteNo="1" devices="tripinfo_veh58 routing_veh58" vType="veh_passenger" speedFactor="1.00" vaporized=""/>
    <tripinfo id="veh6" depart="8.00" departLane="37051973#8_1" departPos="5.10" departSpeed="0.00" departDelay="0.67" arrival="422.00" arrivalLane="294561112#1_0" arrivalPos="46.02" arrivalSpeed="17.34" duration="414.00" routeLength="1298.00" waitingTime="295.00" waitingCount="7" stopTime="0.00" timeLoss="351.69" rerouteNo="1" devices="tripinfo_veh6 routing_veh6" vType="veh_passenger" speedFactor="0.83" vaporized=""/>
    <tripinfo id="veh279" depart="341.00" departLane="132400917#1_0" departPos="5.10" departSpeed="0.00" departDelay="0.24" arrival="429.00" arrivalLane="-39435612#0_0" arrivalPos="33.75" arrivalSpeed="22.35" duration="88.00" routeLength="393.45" waitingTime="44.00" waitingCount="2" stopTime="0.00" timeLoss="70.17" rerouteNo="1" devices="tripinfo_veh279 routing_veh279" vType="veh_passenger" speedFactor="0.98" vaporized=""/>
    <tripinfo id="veh303" depart="371.00" departLane="17227712#0_0" departPos="5.10" departSpeed="15.33" departDelay="0.93" arrival="430.00" arrivalLane="52095236#1_0" arrivalPos="66.70" arrivalSpeed="18.73" duration="59.00" routeLength="677.79" waitingTime="7.00" waitingCount="1" stopTime="0.00" timeLoss="21.31" rerouteNo="1" devices="tripinfo_veh303 routing_veh303" vType="veh_passenger" speedFactor="1.10" vaporized=""/>
    <tripinfo id="veh235" depart="288.00" departLane="-132400906#1_0" departPos="5.10" departSpeed="0.00" departDelay="0.98" arrival="448.00" arrivalLane="294443279#1_0" arrivalPos="60.57" arrivalSpeed="18.45" duration="160.00" routeLength="605.63" waitingTime="93.00" waitingCount="4" stopTime="0.00" timeLoss="136.79" rerouteNo="1" devices="tripinfo_veh235 routing_veh235" vType="veh_passenger" speedFactor="1.02" vaporized=""/>
    <tripinfo id="veh57" depart="70.00" departLane="39275905#7_0" departPos="5.10" departSpeed="0.00" departDelay="0.38" arrival="449.00" arrivalLane="294443279#1_0" arrivalPos="60.57" arrivalSpeed="16.56" duration="379.00" routeLength="1405.73" waitingTime="222.00" waitingCount="10" stopTime="0.00" timeLoss="330.14" rerouteNo="1" devices="tripinfo_veh57 routing_veh57" vType="veh_passenger" speedFactor="1.10" vaporized=""/>
    <tripinfo id="veh49" depart="60.00" departLane="132400957#0_0" departPos="5.10" departSpeed="30.22" departDelay="0.15" arrival="453.00" arrivalLane="37051823#1_0" arrivalPos="249.05" arrivalSpeed="8.20" duration="393.00" routeLength="1044.54" waitingTime="307.00" waitingCount="5" stopTime="0.00" timeLoss="358.24" rerouteNo="1" devices="tripinfo_veh49 routing_veh49" vType="veh_passenger" speedFactor="1.09" vaporized=""/>
    <tripinfo id="veh112" depart="137.00" departLane="132400907#2_2" departPos="5.10" departSpeed="0.00" departDelay="0.21" arrival="457.00" arrivalLane="17227246#1_0" arrivalPos="106.81" arrivalSpeed="24.22" duration="320.00" routeLength="1168.06" waitingTime="219.00" waitingCount="4" stopTime="0.00" timeLoss="274.77" rerouteNo="1" devices="tripinfo_veh112 routing_veh112" vType="veh_passenger" speedFactor="1.01" vaporized=""/>
    <tripinfo id="veh198" depart="242.00" departLane="216414503#1_0" departPos="5.10" departSpeed="0.00" departDelay="0.17" arrival="458.00" arrivalLane="39606271#6_1" arrivalPos="19.98" arrivalSpeed="26.07" duration="216.00" routeLength="684.50" waitingTime="147.00" waitingCount="3" stopTime="0.00" timeLoss="185.51" rerouteNo="1" devices="tripinfo_veh198 routing_veh198" vType="veh_passenger" speedFactor="0.97" vaporized=""/>
    <tripinfo id="veh297" depart="363.00" departLane="-17216777#1_0" departPos="5.10" departSpeed="13.14" departDelay="0.26" arrival="462.00" arrivalLane="1047723751#3_0" arrivalPos="31.95" arrivalSpeed="11.87" duration="99.00" routeLength="998.87" waitingTime="7.00" waitingCount="1" stopTime="0.00" timeLoss="37.45" rerouteNo="1" devices="tripinfo_veh297 routing_veh297" vType="veh_passenger" speedFactor="0.95" vaporized=""/>
    <tripinfo id="veh115" depart="141.00" departLane="-249305448#0_0" departPos="3.08" departSpeed="0.00" departDelay="0.54" arrival="467.00" arrivalLane="132400907#7_1" arrivalPos="18.35" arrivalSpeed="12.72" duration="326.00" routeLength="928.06" waitingTime="237.00" waitingCount="4" stopTime="0.00" timeLoss="284.14" rerouteNo="1" devices="tripinfo_veh115 routing_veh115" vType="veh_passenger" speedFactor="0.96" vaporized=""/>
    <tripinfo id="veh18" depart="22.00" departLane="45090429#5_1" departPos="5.10" departSpeed="0.00" departDelay="0.02" arrival="469.00" arrivalLane="304618246#3_0" arrivalPos="28.29" arrivalSpeed="13.35" duration="447.00" routeLength="602.95" waitingTime="366.00" waitingCount="4" stopTime="0.00" timeLoss="401.87" rerouteNo="1" devices="tripinfo_veh18 routing_veh18" vType="veh_passenger" speedFactor="0.88" vaporized=""/>
    <tripinfo id="veh134" depart="164.00" departLane="-249305448#6_0" departPos="5.10" departSpeed="0.00" departDelay="0.34" arrival="469.00" arrivalLane="656618859#1_0" arrivalPos="107.93" arrivalSpeed="20.89" duration="305.00" routeLength="1075.43" waitingTime="210.00" waitingCount="5" stopTime="0.00" timeLoss="254.72" rerouteNo="1" devices="tripinfo_veh134 routing_veh134" vType="veh_passenger" speedFactor="0.82" vaporized=""/>
    <tripinfo id="veh65" depart="80.00" departLane="249270973#1_0" departPos="5.10" departSpeed="0.00" departDelay="0.61" arrival="470.00" arrivalLane="294561112#15_0" arrivalPos="43.98" arrivalSpeed="21.40" duration="390.00" routeLength="1491.08" waitingTime="240.00" waitingCount="8" stopTime="0.00" timeLoss="335.14" rerouteNo="1" devices="tripinfo_veh65 routing_veh65" vType="veh_passenger" speedFactor="1.12" vaporized=""/>
    <tripinfo id="veh16" depart="20.00" departLane="17219050#0_0" departPos="5.10" departSpeed="13.77" departDelay="0.46" arrival="471.00" arrivalLane="294561112#16_1" arrivalPos="20.38" arrivalSpeed="21.05" duration="451.00" routeLength="1295.28" waitingTime="310.00" waitingCount="8" stopTime="0.00" timeLoss="380.14" rerouteNo="1" devices="tripinfo_veh16 routing_veh16" vType="veh_passenger" speedFactor="0.99" vaporized=""/>
    <tripinfo id="veh155" depart="190.00" departLane="17212141#1_1" departPos="5.10" departSpeed="0.00" departDelay="0.69" arrival="479.00" arrivalLane="52095236#4_0" arrivalPos="179.42" arrivalSpeed="20.61" duration="289.00" routeLength="1007.89" waitingTime="187.00" waitingCount="5" stopTime="0.00" timeLoss="241.98" rerouteNo="1" devices="tripinfo_veh155 routing_veh155" vType="veh_passenger" speedFactor="0.97" vaporized=""/>
    <tripinfo id="veh87" depart="107.00" departLane="-987561408#1_1" departPos="5.10" departSpeed="28.25" departDelay="0.74" arrival="482.00" arrivalLane="248116150#1_2" arrivalPos="22.65" arrivalSpeed="14.21" duration="375.00" routeLength="1024.12" waitingTime="264.00" waitingCount="7" stopTime="0.00" timeLoss="335.19" rerouteNo="1" devices="tripinfo_veh87 routing_veh87" vType="veh_passenger" speedFactor="1.02" vaporized=""/>
    <tripinfo id="veh123" depart="151.00" departLane="-37138485#1_0" departPos="5.10" departSpeed="0.00" departDelay="0.77" arrival="486.00" arrivalLane="-39276274#1_0" arrivalPos="281.66" arrivalSpeed="32.61" duration="335.00" routeLength="1393.98" waitingTime="223.00" waitingCount="5" stopTime="0.00" timeLoss="285.14" rerouteNo="1" devices="tripinfo_veh123 routing_veh123" vType="veh_passenger" speedFactor="1.18" vaporized=""/>
    <tripinfo id="veh142" depart="174.00" departLane="39362439#4_0" departPos="5.10" departSpeed="0.00" departDelay="0.57" arrival="499.00" arrivalLane="656618859#1_2" arrivalPos="107.93" arrivalSpeed="21.49" duration="325.00" routeLength="924.42" waitingTime="250.00" waitingCount="3" stopTime="0.00" timeLoss="288.99" rerouteNo="1" devices="tripinfo_veh142 routing_veh142" vType="veh_passenger" speedFactor="1.01" vaporized=""/>
    <tripinfo id="veh24" depart="30.00" departLane="17218405#5_0" departPos="4.25" departSpeed="0.00" departDelay="0.69" arrival="503.00" arrivalLane="132400907#5_1" arrivalPos="16.01" arrivalSpeed="22.31" duration="473.00" routeLength="1238.41" waitingTime="330.00" waitingCount="8" stopTime="0.00" timeLoss="411.43" rerouteNo="1" devices="tripinfo_veh24 routing_veh24" vType="veh_passenger" speedFactor="0.97" vaporized=""/>
    <tripinfo id="veh25" depart="31.00" departLane="132400957#0_0" departPos="5.10" departSpeed="24.71" departDelay="0.47" arrival="520.00" arrivalLane="658581240#2_0" arrivalPos="25.26" arrivalSpeed="8.98" duration="489.00" routeLength="1707.41" waitingTime="339.00" waitingCount="7" stopTime="0.00" timeLoss="410.36" rerouteNo="1" devices="tripinfo_veh25 routing_veh25" vType="veh_passenger" speedFactor="0.89" vaporized=""/>
    <tripinfo id="veh97" depart="119.00" departLane="132400957#0_0" departPos="5.10" departSpeed="23.16" departDelay="0.53" arrival="526.00" arrivalLane="39362439#3_0" arrivalPos="23.73" arrivalSpeed="21.87" duration="407.00" routeLength="622.39" waitingTime="337.00" waitingCount="4" stopTime="0.00" timeLoss="374.17" rerouteNo="1" devices="tripinfo_veh97 routing_veh97" vType="veh_passenger" speedFactor="0.83" vaporized=""/>
    <tripinfo id="veh146" depart="179.00" departLane="39494751#1_0" departPos="5.10" departSpeed="0.00" departDelay="0.68" arrival="529.00" arrivalLane="656618858#1_0" arrivalPos="110.66" arrivalSpeed="23.76" duration="350.00" routeLength="619.55" waitingTime="288.00" waitingCount="3" stopTime="0.00" timeLoss="324.45" rerouteNo="1" devices="tripinfo_veh146 routing_veh146" vType="veh_passenger" speedFactor="0.95" vaporized=""/>
    <tripinfo id="veh148" depart="181.00" departLane="-17212141#2_0" departPos="5.10" departSpeed="0.00" departDelay="0.24" arrival="531.00" arrivalLane="658581240#0_0" arrivalPos="28.63" arrivalSpeed="12.47" duration="350.00" routeLength="428.18" waitingTime="304.00" waitingCount="2" stopTime="0.00" timeLoss="326.91" rerouteNo="1" devices="tripinfo_veh148 routing_veh148" vType="veh_passenger" speedFactor="1.16" vaporized=""/>
    <tripinfo id="veh164" depart="201.00" departLane="132400922#1_0" departPos="5.10" departSpeed="0.00" departDelay="0.70" arrival="533.00" arrivalLane="37114310#2_0" arrivalPos="7.05" arrivalSpeed="17.61" duration="332.00" routeLength="615.11" waitingTime="255.00" waitingCount="5" stopTime="0.00" timeLoss="312.43" rerouteNo="1" devices="tripinfo_veh164 routing_veh164" vType="veh_passenger" speedFactor="1.18" vaporized=""/>
    <tripinfo id="veh45" depart="55.00" departLane="987561406#0_0" departPos="5.10" departSpeed="0.00" departDelay="0.04" arrival="538.00" arrivalLane="293638418#1_0" arrivalPos="15.03" arrivalSpeed="13.66" duration="483.00" routeLength="896.44" waitingTime="372.00" waitingCount="7" stopTime="0.00" timeLoss="436.74" rerouteNo="1" devices="tripinfo_veh45 routing_veh45" vType="veh_passenger" speedFactor="0.96" vaporized=""/>
    <tripinfo id="veh210" depart="257.00" departLane="132400966#2_0" departPos="4.65" departSpeed="0.00" departDelay="0.52" arrival="539.00" arrivalLane="17213998#1_0" arrivalPos="41.98" arrivalSpeed="12.63" duration="282.00" routeLength="1102.54" waitingTime="159.00" waitingCount="5" stopTime="0.00" timeLoss="232.69" rerouteNo="1" devices="tripinfo_veh210 routing_veh210" vType="veh_passenger" speedFactor="0.95" vaporized=""/>
    <tripinfo id="veh73" depart="90.00" departLane="17213444#1_2" departPos="5.10" departSpeed="0.00" departDelay="0.84" arrival="542.00" arrivalLane="340328042#2_0" arrivalPos="12.97" arrivalSpeed="28.24" duration="452.00" routeLength="847.16" waitingTime="390.00" waitingCount="3" stopTime="0.00" timeLoss="421.03" rerouteNo="1" devices="tripinfo_veh73 routing_veh73" vType="veh_passenger" speedFactor="1.02" vaporized=""/>
    <tripinfo id="veh89" depart="109.00" departLane="132400907#7_0" departPos="5.10" departSpeed="0.00" departDelay="0.30" arrival="542.00" arrivalLane="658581086#3_2" arrivalPos="5.60" arrivalSpeed="23.17" duration="433.00" routeLength="998.91" waitingTime="334.00" waitingCount="5" stopTime="0.00" timeLoss="394.75" rerouteNo="1" devices="tripinfo_veh89 routing_veh89" vType="veh_passenger" speedFactor="1.15" vaporized=""/>
    <tripinfo id="veh275" depart="336.00" departLane="37114311#1_1" departPos="5.10" departSpeed="0.00" departDelay="0.13" arrival="544.00" arrivalLane="17212629#9_0" arrivalPos="68.37" arrivalSpeed="22.91" duration="208.00" routeLength="612.30" waitingTime="152.00" waitingCount="3" stopTime="0.00" timeLoss="182.05" rerouteNo="1" devices="tripinfo_veh275 routing_veh275" vType="veh_passenger" speedFactor="1.04" vaporized=""/>
    <tripinfo id="veh225" depart="275.00" departLane="17212629#8_0" departPos="5.10" departSpeed="0.00" departDelay="0.20" arrival="577.00" arrivalLane="37054455#1_1" arrivalPos="47.73" arrivalSpeed="15.61" duration="302.00" routeLength="541.73" waitingTime="234.00" waitingCount="3" stopTime="0.00" timeLoss="266.59" rerouteNo="1" devices="tripinfo_veh225 routing_veh225" vType="veh_passenger" speedFactor="0.83" vaporized=""/>
    <tripinfo id="veh113" depart="139.00" departLane="37114303#2_0" departPos="5.10" departSpeed="0.00" departDelay="0.99" arrival="579.00" arrivalLane="17212141#1_2" arrivalPos="13.03" arrivalSpeed="22.82" duration="440.00" routeLength="1243.41" waitingTime="315.00" waitingCount="6" stopTime="0.00" timeLoss="395.65" rerouteNo="1" devices="tripinfo_veh113 routing_veh113" vType="veh_passenger" speedFactor="1.03" vaporized=""/>
    <tripinfo id="veh261" depart="319.00" departLane="132400966#1_0" departPos="5.10" departSpeed="0.00" departDelay="0.23" arrival="580.00" arrivalLane="39606273#6_1" arrivalPos="42.89" arrivalSpeed="17.41" duration="261.00" routeLength="1137.48" waitingTime="144.00" waitingCount="6" stopTime="0.00" timeLoss="221.66" rerouteNo="1" devices="tripinfo_veh261 routing_veh261" vType="veh_passenger" speedFactor="1.11" vaporized=""/>
    <tripinfo id="veh324" depart="396.00" departLane="249305447#1_0" departPos="5.10" departSpeed="0.00" departDelay="0.28" arrival="587.00" arrivalLane="37051825#4_0" arrivalPos="23.59" arrivalSpeed="25.94" duration="191.00" routeLength="670.52" waitingTime="115.00" waitingCount="4" stopTime="0.00" timeLoss="163.57" rerouteNo="1" devices="tripinfo_veh324 routing_veh324" vType="veh_passenger" speedFactor="1.05" vaporized=""/>
    <tripinfo id="veh7" depart="9.00" departLane="1107046529#1_0" departPos="5.10" departSpeed="0.00" departDelay="0.45" arrival="598.00" arrivalLane="340328042#2_0" arrivalPos="12.97" arrivalSpeed="25.70" duration="589.00" routeLength="1380.98" waitingTime="454.00" waitingCount="8" stopTime="0.00" timeLoss="536.31" rerouteNo="1" devices="tripinfo_veh7 routing_veh7" vType="veh_passenger" speedFactor="1.05" vaporized=""/>
    <tripinfo id="veh351" depart="429.00" departLane="216999484#1_0" departPos="0.70" departSpeed="0.00" departDelay="0.31" arrival="603.00" arrivalLane="-39276274#1_0" arrivalPos="281.66" arrivalSpeed="31.66" duration="174.00" routeLength="927.36" waitingTime="106.00" waitingCount="3" stopTime="0.00" timeLoss="134.42" rerouteNo="1" devices="tripinfo_veh351 routing_veh351" vType="veh_passenger" speedFactor="1.16" vaporized=""/>
    <tripinfo id="veh369" depart="451.00" departLane="39606271#1_2" departPos="5.10" departSpeed="0.00" departDelay="0.32" arrival="604.00" arrivalLane="17226282#1_0" arrivalPos="295.36" arrivalSpeed="13.12" duration="153.00" routeLength="1001.80" waitingTime="53.00" waitingCount="3" stopTime="0.00" timeLoss="93.55" rerouteNo="1" devices="tripinfo_veh369 routing_veh369" vType="veh_passenger" speedFactor="1.03" vaporized=""/>
    <tripinfo id="veh227" depart="278.00" departLane="45050328_0" departPos="0.20" departSpeed="0.00" departDelay="0.75" arrival="605.00" arrivalLane="-45050329#5_0" arrivalPos="951.85" arrivalSpeed="26.76" duration="327.00" routeLength="1052.08" waitingTime="270.00" waitingCount="2" stopTime="0.00" timeLoss="287.31" rerouteNo="1" devices="tripinfo_veh227 routing_veh227" vType="veh_passenger" speedFactor="0.97" vaporized=""/>
    <tripinfo id="veh110" depart="135.00" departLane="17225655#0_1" departPos="5.10" departSpeed="24.83" departDelay="0.65" arrival="608.00" arrivalLane="306461344#9_0" arrivalPos="126.60" arrivalSpeed="7.01" duration="473.00" routeLength="1370.95" waitingTime="330.00" waitingCount="8" stopTime="0.00" timeLoss="404.19" rerouteNo="1" devices="tripinfo_veh110 routing_veh110" vType="veh_passenger" speedFactor="0.89" vaporized=""/>
    <tripinfo id="veh141" depart="185.00" departLane="132400907#7_0" departPos="5.10" departSpeed="0.00" departDelay="12.79" arrival="609.00" arrivalLane="-37914992#3_0" arrivalPos="23.70" arrivalSpeed="14.74" duration="424.00" routeLength="792.57" waitingTime="346.00" waitingCount="4" stopTime="0.00" timeLoss="394.73" rerouteNo="1" devices="tripinfo_veh141 routing_veh141" vType="veh_passenger" speedFactor="1.23" vaporized=""/>
    <tripinfo id="veh253" depart="309.00" departLane="39362439#5_2" departPos="5.10" departSpeed="0.00" departDelay="0.00" arrival="618.00" arrivalLane="17218700#1_0" arrivalPos="261.53" arrivalSpeed="12.19" duration="309.00" routeLength="1310.21" waitingTime="185.00" waitingCount="5" stopTime="0.00" timeLoss="237.28" rerouteNo="1" devices="tripinfo_veh253 routing_veh253" vType="veh_passenger" speedFactor="0.97" vaporized=""/>
    <tripinfo id="veh468" depart="572.00" departLane="-45050329#7_0" departPos="5.10" departSpeed="0.00" departDelay="0.41" arrival="620.00" arrivalLane="-45050329#5_0" arrivalPos="951.85" arrivalSpeed="23.57" duration="48.00" routeLength="1002.65" waitingTime="0.00" waitingCount="0" stopTime="0.00" timeLoss="6.24" rerouteNo="1" devices="tripinfo_veh468 routing_veh468" vType="veh_passenger" speedFactor="0.88" vaporized=""/>