<?xml version="1.0" encoding="UTF-8"?>

<!-- generated on 2023-12-19 15:05:55 by Eclipse SUMO sumo Version 1.19.0
<configuration xmlns:xsi="http://www.w3.org/2001/XMLSchema-instance" xsi:noNamespaceSchemaLocation="http://sumo.dlr.de/xsd/sumoConfiguration.xsd">

    <input>
        <net-file value="sumo/osm.net.xml.gz"/>
        <route-files value="sumo/osm.passenger.trips.xml"/>
        <additional-files value="sumo/osm.poly.xml.gz"/>
    </input>

    <output>
        <tripinfo-output value="sumo/static_tripinfo.xml"/>
    </output>

    <processing>
        <ignore-route-errors value="true"/>
    </processing>

    <routing>
        <device.rerouting.adaptation-steps value="18"/>
        <device.rerouting.adaptation-interval value="10"/>
    </routing>

    <report>
        <verbose value="true"/>
        <no-warnings value="true"/>
        <duration-log.statistics value="true"/>
        <no-step-log value="true"/>
    </report>

    <traci_server>
        <remote-port value="61971"/>
    </traci_server>

    <gui_only>
        <gui-settings-file value="sumo/osm.view.xml"/>
    </gui_only>

</configuration>
-->

<tripinfos xmlns:xsi="http://www.w3.org/2001/XMLSchema-instance" xsi:noNamespaceSchemaLocation="http://sumo.dlr.de/xsd/tripinfo_file.xsd">
    <tripinfo id="veh12" depart="48.00" departLane="-45050329#7_0" departPos="5.10" departSpeed="0.00" departDelay="0.23" arrival="83.00" arrivalLane="-45050329#4_0" arrivalPos="613.15" arrivalSpeed="29.51" duration="35.00" routeLength="784.37" waitingTime="0.00" waitingCount="0" stopTime="0.00" timeLoss="8.31" rerouteNo="1" devices="tripinfo_veh12 routing_veh12" vType="veh_passenger" speedFactor="1.09" vaporized=""/>
    <tripinfo id="veh3" depart="12.00" departLane="304618246#0_0" departPos="5.10" departSpeed="25.57" departDelay="0.06" arrival="120.00" arrivalLane="-17213698#1_0" arrivalPos="75.49" arrivalSpeed="14.77" duration="108.00" routeLength="1415.68" waitingTime="14.00" waitingCount="2" stopTime="0.00" timeLoss="42.26" rerouteNo="1" devices="tripinfo_veh3 routing_veh3" vType="veh_passenger" speedFactor="1.08" vaporized=""/>
    <tripinfo id="veh20" depart="80.00" departLane="292256998#1_0" departPos="5.10" departSpeed="0.00" departDelay="0.38" arrival="126.00" arrivalLane="132400922#1_2" arrivalPos="137.28" arrivalSpeed="23.89" duration="46.00" routeLength="402.92" waitingTime="14.00" waitingCount="1" stopTime="0.00" timeLoss="27.55" rerouteNo="1" devices="tripinfo_veh20 routing_veh20" vType="veh_passenger" speedFactor="0.88" vaporized=""/>
    <tripinfo id="veh0" depart="0.00" departLane="37915614#2_0" departPos="5.10" departSpeed="0.00" departDelay="0.00" arrival="151.00" arrivalLane="-132400957#2_0" arrivalPos="9.93" arrivalSpeed="26.36" duration="151.00" routeLength="1281.99" waitingTime="55.00" waitingCount="3" stopTime="0.00" timeLoss="100.30" rerouteNo="1" devices="tripinfo_veh0 routing_veh0" vType="veh_passenger" speedFactor="1.06" vaporized=""/>
    <tripinfo id="veh14" depart="56.00" departLane="45204087#0_0" departPos="5.10" departSpeed="23.27" departDelay="0.26" arrival="186.00" arrivalLane="37915612#1_0" arrivalPos="107.07" arrivalSpeed="22.45" duration="130.00" routeLength="1196.74" waitingTime="36.00" waitingCount="3" stopTime="0.00" timeLoss="86.38" rerouteNo="1" devices="tripinfo_veh14 routing_veh14" vType="veh_passenger" speedFactor="1.05" vaporized=""/>
    <tripinfo id="veh29" depart="116.00" departLane="658526864#1_1" departPos="5.10" departSpeed="0.00" departDelay="0.54" arrival="188.00" arrivalLane="294561112#19_0" arrivalPos="152.07" arrivalSpeed="19.00" duration="72.00" routeLength="429.44" waitingTime="29.00" waitingCount="2" stopTime="0.00" timeLoss="50.17" rerouteNo="1" devices="tripinfo_veh29 routing_veh29" vType="veh_passenger" speedFactor="0.87" vaporized=""/>
    <tripinfo id="veh34" depart="136.00" departLane="-770925915#2_0" departPos="5.10" departSpeed="0.00" departDelay="0.64" arrival="191.00" arrivalLane="37114303#4_0" arrivalPos="27.93" arrivalSpeed="13.96" duration="55.00" routeLength="639.81" waitingTime="3.00" waitingCount="1" stopTime="0.00" timeLoss="34.62" rerouteNo="1" devices="tripinfo_veh34 routing_veh34" vType="veh_passenger" speedFactor="1.18" vaporized=""/>
    <tripinfo id="veh8" depart="32.00" departLane="45204087#0_0" departPos="5.10" departSpeed="19.69" departDelay="0.15" arrival="195.00" arrivalLane="1057713529#3_1" arrivalPos="38.04" arrivalSpeed="24.42" duration="163.00" routeLength="1132.34" waitingTime="76.00" waitingCount="3" stopTime="0.00" timeLoss="112.86" rerouteNo="1" devices="tripinfo_veh8 routing_veh8" vType="veh_passenger" speedFactor="0.89" vaporized=""/>
    <tripinfo id="veh1" depart="4.00" departLane="45050329#0_1" departPos="5.10" departSpeed="26.07" departDelay="0.02" arrival="209.00" arrivalLane="37136833#3_0" arrivalPos="142.42" arrivalSpeed="24.92" duration="205.00" routeLength="2264.93" waitingTime="64.00" waitingCount="3" stopTime="0.00" timeLoss="115.56" rerouteNo="1" devices="tripinfo_veh1 routing_veh1" vType="veh_passenger" speedFactor="0.94" vaporized=""/>
    <tripinfo id="veh22" depart="88.00" departLane="132400957#0_0" departPos="5.10" departSpeed="26.01" departDelay="0.41" arrival="222.00" arrivalLane="37915612#1_0" arrivalPos="107.07" arrivalSpeed="23.41" duration="134.00" routeLength="1335.48" waitingTime="40.00" waitingCount="4" stopTime="0.00" timeLoss="81.79" rerouteNo="1" devices="tripinfo_veh22 routing_veh22" vType="veh_passenger" speedFactor="0.94" vaporized=""/>
    <tripinfo id="veh4" depart="16.00" departLane="17205224#2_1" departPos="5.10" departSpeed="0.00" departDelay="0.08" arrival="223.00" arrivalLane="306461344#2_0" arrivalPos="17.86" arrivalSpeed="13.70" duration="207.00" routeLength="1498.97" waitingTime="89.00" waitingCount="2" stopTime="0.00" timeLoss="142.47" rerouteNo="1" devices="tripinfo_veh4 routing_veh4" vType="veh_passenger" speedFactor="1.03" vaporized=""/>
    <tripinfo id="veh36" depart="144.00" departLane="-37052092#5_0" departPos="5.10" departSpeed="13.96" departDelay="0.68" arrival="224.00" arrivalLane="17221307#1_0" arrivalPos="156.41" arrivalSpeed="13.80" duration="80.00" routeLength="988.37" waitingTime="0.00" waitingCount="0" stopTime="0.00" timeLoss="8.26" rerouteNo="1" devices="tripinfo_veh36 routing_veh36" vType="veh_passenger" speedFactor="1.01" vaporized=""/>
    <tripinfo id="veh27" depart="108.00" departLane="249305447#0_1" departPos="5.10" departSpeed="24.71" departDelay="0.51" arrival="227.00" arrivalLane="17205224#5_0" arrivalPos="19.24" arrivalSpeed="24.39" duration="119.00" routeLength="1195.83" waitingTime="29.00" waitingCount="4" stopTime="0.00" timeLoss="67.90" rerouteNo="1" devices="tripinfo_veh27 routing_veh27" vType="veh_passenger" speedFactor="0.89" vaporized=""/>
    <tripinfo id="veh30" depart="120.00" departLane="-37052092#3_0" departPos="5.10" departSpeed="0.00" departDelay="0.56" arrival="231.00" arrivalLane="17205224#3_1" arrivalPos="12.69" arrivalSpeed="18.34" duration="111.00" routeLength="862.97" waitingTime="17.00" waitingCount="2" stopTime="0.00" timeLoss="60.49" rerouteNo="1" devices="tripinfo_veh30 routing_veh30" vType="veh_passenger" speedFactor="0.92" vaporized=""/>
    <tripinfo id="veh5" depart="20.00" departLane="-17221307#1_0" departPos="5.10" departSpeed="11.54" departDelay="0.09" arrival="232.00" arrivalLane="132400907#1_1" arrivalPos="142.32" arrivalSpeed="22.49" duration="212.00" routeLength="1538.19" waitingTime="75.00" waitingCount="4" stopTime="0.00" timeLoss="127.32" rerouteNo="1" devices="tripinfo_veh5 routing_veh5" vType="veh_passenger" speedFactor="0.83" vaporized=""/>
    <tripinfo id="veh9" depart="36.00" departLane="45090429#5_0" departPos="5.10" departSpeed="0.00" departDelay="0.17" arrival="240.00" arrivalLane="37138017#1_1" arrivalPos="123.83" arrivalSpeed="25.44" duration="204.00" routeLength="1209.35" waitingTime="88.00" waitingCount="5" stopTime="0.00" timeLoss="135.44" rerouteNo="1" devices="tripinfo_veh9 routing_veh9" vType="veh_passenger" speedFactor="0.94" vaporized=""/>
    <tripinfo id="veh21" depart="84.00" departLane="39275723#0_0" departPos="5.10" departSpeed="26.15" departDelay="0.39" arrival="241.00" arrivalLane="37054458#3_0" arrivalPos="52.32" arrivalSpeed="24.08" duration="157.00" routeLength="1299.81" waitingTime="47.00" waitingCount="4" stopTime="0.00" timeLoss="92.48" rerouteNo="1" devices="tripinfo_veh21 routing_veh21" vType="veh_passenger" speedFactor="0.94" vaporized=""/>
    <tripinfo id="veh39" depart="156.00" departLane="132400957#2_0" departPos="5.10" departSpeed="0.00" departDelay="0.73" arrival="255.00" arrivalLane="37915612#1_0" arrivalPos="107.07" arrivalSpeed="20.36" duration="99.00" routeLength="1227.77" waitingTime="6.00" waitingCount="2" stopTime="0.00" timeLoss="54.24" rerouteNo="1" devices="tripinfo_veh39 routing_veh39" vType="veh_passenger" speedFactor="0.99" vaporized=""/>
    <tripinfo id="veh35" depart="140.00" departLane="45090429#0_0" departPos="5.10" departSpeed="25.65" departDelay="0.66" arrival="268.00" arrivalLane="25593473#0_0" arrivalPos="141.15" arrivalSpeed="24.78" duration="128.00" routeLength="999.52" waitingTime="43.00" waitingCount="3" stopTime="0.00" timeLoss="78.62" rerouteNo="1" devices="tripinfo_veh35 routing_veh35" vType="veh_passenger" speedFactor="1.15" vaporized=""/>
    <tripinfo id="veh31" depart="124.00" departLane="37114303#2_0" departPos="5.10" departSpeed="0.00" departDelay="0.58" arrival="271.00" arrivalLane="658527085#2_0" arrivalPos="13.85" arrivalSpeed="25.97" duration="147.00" routeLength="1576.34" waitingTime="22.00" waitingCount="2" stopTime="0.00" timeLoss="72.27" rerouteNo="1" devices="tripinfo_veh31 routing_veh31" vType="veh_passenger" speedFactor="0.95" vaporized=""/>
    <tripinfo id="veh46" depart="184.00" departLane="658342131#2_1" departPos="5.10" departSpeed="0.00" departDelay="0.86" arrival="278.00" arrivalLane="658526864#7_0" arrivalPos="74.64" arrivalSpeed="25.09" duration="94.00" routeLength="1242.01" waitingTime="13.00" waitingCount="1" stopTime="0.00" timeLoss="51.01" rerouteNo="1" devices="tripinfo_veh46 routing_veh46" vType="veh_passenger" speedFactor="1.10" vaporized=""/>
    <tripinfo id="veh28" depart="112.00" departLane="39275723#0_0" departPos="5.10" departSpeed="22.94" departDelay="0.53" arrival="279.00" arrivalLane="17227246#1_0" arrivalPos="106.81" arrivalSpeed="22.46" duration="167.00" routeLength="1277.73" waitingTime="51.00" waitingCount="4" stopTime="0.00" timeLoss="95.92" rerouteNo="1" devices="tripinfo_veh28 routing_veh28" vType="veh_passenger" speedFactor="0.83" vaporized=""/>
    <tripinfo id="veh32" depart="128.00" departLane="294561112#16_1" departPos="5.10" departSpeed="0.00" departDelay="0.60" arrival="290.00" arrivalLane="168728401#1_0" arrivalPos="114.01" arrivalSpeed="23.48" duration="162.00" routeLength="1759.39" waitingTime="21.00" waitingCount="4" stopTime="0.00" timeLoss="92.22" rerouteNo="1" devices="tripinfo_veh32 routing_veh32" vType="veh_passenger" speedFactor="1.13" vaporized=""/>
    <tripinfo id="veh57" depart="227.00" departLane="-37052092#5_0" departPos="5.10" departSpeed="13.85" departDelay="0.07" arrival="297.00" arrivalLane="45050329#10_1" arrivalPos="40.43" arrivalSpeed="20.59" duration="70.00" routeLength="860.18" waitingTime="0.00" waitingCount="0" stopTime="0.00" timeLoss="9.10" rerouteNo="1" devices="tripinfo_veh57 routing_veh57" vType="veh_passenger" speedFactor="1.00" vaporized=""/>
    <tripinfo id="veh66" depart="263.00" departLane="37113369#1_0" departPos="5.10" departSpeed="0.00" departDelay="0.24" arrival="298.00" arrivalLane="37114303#7_0" arrivalPos="22.21" arrivalSpeed="23.53" duration="35.00" routeLength="447.50" waitingTime="0.00" waitingCount="0" stopTime="0.00" timeLoss="16.57" rerouteNo="1" devices="tripinfo_veh66 routing_veh66" vType="veh_passenger" speedFactor="1.00" vaporized=""/>
    <tripinfo id="veh62" depart="247.00" departLane="88617178#3_0" departPos="5.10" departSpeed="0.00" departDelay="0.16" arrival="302.00" arrivalLane="37114312#1_1" arrivalPos="24.74" arrivalSpeed="32.16" duration="55.00" routeLength="590.72" waitingTime="11.00" waitingCount="1" stopTime="0.00" timeLoss="33.85" rerouteNo="1" devices="tripinfo_veh62 routing_veh62" vType="veh_passenger" speedFactor="1.17" vaporized=""/>
    <tripinfo id="veh7" depart="28.00" departLane="17205224#2_0" departPos="5.10" departSpeed="0.00" departDelay="0.13" arrival="304.00" arrivalLane="37052092#4_0" arrivalPos="53.54" arrivalSpeed="13.82" duration="276.00" routeLength="755.89" waitingTime="195.00" waitingCount="3" stopTime="0.00" timeLoss="232.09" rerouteNo="1" devices="tripinfo_veh7 routing_veh7" vType="veh_passenger" speedFactor="1.05" vaporized=""/>
    <tripinfo id="veh2" depart="8.00" departLane="658342131#0_0" departPos="5.10" departSpeed="28.07" departDelay="0.04" arrival="307.00" arrivalLane="-45050329#4_1" arrivalPos="613.15" arrivalSpeed="27.19" duration="299.00" routeLength="1835.19" waitingTime="188.00" waitingCount="5" stopTime="0.00" timeLoss="231.40" rerouteNo="1" devices="tripinfo_veh2 routing_veh2" vType="veh_passenger" speedFactor="1.01" vaporized=""/>
    <tripinfo id="veh67" depart="267.00" departLane="518910434#0-AddedOnRampEdge_1" departPos="5.10" departSpeed="24.92" departDelay="0.26" arrival="312.00" arrivalLane="45050329#14_0" arrivalPos="19.60" arrivalSpeed="24.24" duration="45.00" routeLength="639.47" waitingTime="0.00" waitingCount="0" stopTime="0.00" timeLoss="9.38" rerouteNo="1" devices="tripinfo_veh67 routing_veh67" vType="veh_passenger" speedFactor="0.90" vaporized=""/>
    <tripinfo id="veh18" depart="75.00" departLane="-518910430#1_0" departPos="5.10" departSpeed="0.00" departDelay="3.34" arrival="313.00" arrivalLane="17205735#2_1" arrivalPos="7.74" arrivalSpeed="18.76" duration="238.00" routeLength="951.78" waitingTime="147.00" waitingCount="3" stopTime="0.00" timeLoss="196.41" rerouteNo="1" devices="tripinfo_veh18 routing_veh18" vType="veh_passenger" speedFactor="0.93" vaporized=""/>
    <tripinfo id="veh25" depart="100.00" departLane="37052092#0_0" departPos="5.10" departSpeed="0.00" departDelay="0.47" arrival="313.00" arrivalLane="37136833#3_0" arrivalPos="142.42" arrivalSpeed="26.93" duration="213.00" routeLength="1718.49" waitingTime="63.00" waitingCount="5" stopTime="0.00" timeLoss="136.41" rerouteNo="1" devices="tripinfo_veh25 routing_veh25" vType="veh_passenger" speedFactor="1.01" vaporized=""/>
    <tripinfo id="veh26" depart="104.00" departLane="17205224#6_0" departPos="5.10" departSpeed="0.00" departDelay="0.49" arrival="313.00" arrivalLane="-17213698#2_0" arrivalPos="19.59" arrivalSpeed="12.66" duration="209.00" routeLength="633.11" waitingTime="134.00" waitingCount="3" stopTime="0.00" timeLoss="165.50" rerouteNo="1" devices="tripinfo_veh26 routing_veh26" vType="veh_passenger" speedFactor="0.97" vaporized=""/>
    <tripinfo id="veh43" depart="172.00" departLane="304618246#0_0" departPos="5.10" departSpeed="25.57" departDelay="0.81" arrival="315.00" arrivalLane="770925908_1" arrivalPos="20.77" arrivalSpeed="12.63" duration="143.00" routeLength="980.14" waitingTime="72.00" waitingCount="2" stopTime="0.00" timeLoss="111.76" rerouteNo="1" devices="tripinfo_veh43 routing_veh43" vType="veh_passenger" speedFactor="1.18" vaporized=""/>
    <tripinfo id="veh10" depart="40.00" departLane="249305447#0_1" departPos="5.10" departSpeed="23.80" departDelay="0.19" arrival="319.00" arrivalLane="1057713529#3_1" arrivalPos="38.04" arrivalSpeed="22.95" duration="279.00" routeLength="1436.74" waitingTime="156.00" waitingCount="6" stopTime="0.00" timeLoss="214.98" rerouteNo="1" devices="tripinfo_veh10 routing_veh10" vType="veh_passenger" speedFactor="0.86" vaporized=""/>
    <tripinfo id="veh48" depart="192.00" departLane="37114312#1_3" departPos="5.10" departSpeed="0.00" departDelay="0.90" arrival="319.00" arrivalLane="1057713529#2_1" arrivalPos="23.96" arrivalSpeed="22.43" duration="127.00" routeLength="412.34" waitingTime="88.00" waitingCount="1" stopTime="0.00" timeLoss="108.14" rerouteNo="1" devices="tripinfo_veh48 routing_veh48" vType="veh_passenger" speedFactor="0.90" vaporized=""/>
    <tripinfo id="veh60" depart="239.00" departLane="37051824#0_1" departPos="5.10" departSpeed="23.62" departDelay="0.13" arrival="326.00" arrivalLane="37915612#1_0" arrivalPos="107.07" arrivalSpeed="22.08" duration="87.00" routeLength="699.56" waitingTime="20.00" waitingCount="3" stopTime="0.00" timeLoss="53.51" rerouteNo="1" devices="tripinfo_veh60 routing_veh60" vType="veh_passenger" speedFactor="0.85" vaporized=""/>
    <tripinfo id="veh13" depart="52.00" departLane="518910434#0-AddedOnRampEdge_1" departPos="5.10" departSpeed="24.92" departDelay="0.24" arrival="328.00" arrivalLane="37054458#1_0" arrivalPos="54.00" arrivalSpeed="16.03" duration="276.00" routeLength="1418.81" waitingTime="168.00" waitingCount="4" stopTime="0.00" timeLoss="215.08" rerouteNo="1" devices="tripinfo_veh13 routing_veh13" vType="veh_passenger" speedFactor="1.03" vaporized=""/>
    <tripinfo id="veh17" depart="68.00" departLane="518910434#0-AddedOnRampEdge_1" departPos="5.10" departSpeed="27.54" departDelay="0.32" arrival="341.00" arrivalLane="37051419#5_0" arrivalPos="56.72" arrivalSpeed="13.00" duration="273.00" routeLength="1510.38" waitingTime="155.00" waitingCount="3" stopTime="0.00" timeLoss="197.52" rerouteNo="1" devices="tripinfo_veh17 routing_veh17" vType="veh_passenger" speedFactor="0.99" vaporized=""/>
    <tripinfo id="veh61" depart="243.00" departLane="17205222#4_0" departPos="1.35" departSpeed="0.00" departDelay="0.15" arrival="341.00" arrivalLane="17213444#1_0" arrivalPos="132.58" arrivalSpeed="23.18" duration="98.00" routeLength="960.35" waitingTime="9.00" waitingCount="2" stopTime="0.00" timeLoss="49.20" rerouteNo="1" devices="tripinfo_veh61 routing_veh61" vType="veh_passenger" speedFactor="0.85" vaporized=""/>
    <tripinfo id="veh15" depart="60.00" departLane="37051824#0_1" departPos="5.10" departSpeed="31.19" departDelay="0.28" arrival="347.00" arrivalLane="770925915#5_0" arrivalPos="312.33" arrivalSpeed="31.15" duration="287.00" routeLength="1934.64" waitingTime="164.00" waitingCount="3" stopTime="0.00" timeLoss="221.17" rerouteNo="1" devices="tripinfo_veh15 routing_veh15" vType="veh_passenger" speedFactor="1.12" vaporized=""/>
    <tripinfo id="veh54" depart="215.00" departLane="249270974#1_0" departPos="5.10" departSpeed="0.00" departDelay="0.01" arrival="362.00" arrivalLane="37113369#1_0" arrivalPos="56.96" arrivalSpeed="18.58" duration="147.00" routeLength="1460.53" waitingTime="29.00" waitingCount="3" stopTime="0.00" timeLoss="86.22" rerouteNo="1" devices="tripinfo_veh54 routing_veh54" vType="veh_passenger" speedFactor="1.04" vaporized=""/>
    <tripinfo id="veh59" depart="235.00" departLane="304618246#0_0" departPos="5.10" departSpeed="24.36" departDelay="0.11" arrival="367.00" arrivalLane="-132400957#2_0" arrivalPos="9.93" arrivalSpeed="23.40" duration="132.00" routeLength="1604.03" waitingTime="24.00" waitingCount="2" stopTime="0.00" timeLoss="56.21" rerouteNo="1" devices="tripinfo_veh59 routing_veh59" vType="veh_passenger" speedFactor="0.88" vaporized=""/>
    <tripinfo id="veh41" depart="164.00" departLane="17208008#1_1" departPos="0.20" departSpeed="0.00" departDelay="0.77" arrival="370.00" arrivalLane="37114305#5_0" arrivalPos="8.50" arrivalSpeed="19.30" duration="206.00" routeLength="943.02" waitingTime="112.00" waitingCount="4" stopTime="0.00" timeLoss="169.34" rerouteNo="1" devices="tripinfo_veh41 routing_veh41" vType="veh_passenger" speedFactor="1.02" vaporized=""/>
    <tripinfo id="veh24" depart="96.00" departLane="88617178#0_0" departPos="5.10" departSpeed="14.14" departDelay="0.45" arrival="373.00" arrivalLane="37114305#4_0" arrivalPos="5.76" arrivalSpeed="18.00" duration="277.00" routeLength="1577.11" waitingTime="140.00" waitingCount="3" stopTime="0.00" timeLoss="201.35" rerouteNo="1" devices="tripinfo_veh24 routing_veh24" vType="veh_passenger" speedFactor="1.02" vaporized=""/>
    <tripinfo id="veh74" depart="295.00" departLane="304618246#0_1" departPos="5.10" departSpeed="25.57" departDelay="0.39" arrival="383.00" arrivalLane="294561112#19_0" arrivalPos="152.07" arrivalSpeed="21.83" duration="88.00" routeLength="537.74" waitingTime="39.00" waitingCount="3" stopTime="0.00" timeLoss="64.15" rerouteNo="1" devices="tripinfo_veh74 routing_veh74" vType="veh_passenger" speedFactor="1.02" vaporized=""/>
    <tripinfo id="veh72" depart="287.00" departLane="45204087#0_0" departPos="5.10" departSpeed="24.05" departDelay="0.35" arrival="384.00" arrivalLane="132400907#1_1" arrivalPos="142.32" arrivalSpeed="23.19" duration="97.00" routeLength="1059.10" waitingTime="21.00" waitingCount="3" stopTime="0.00" timeLoss="56.76" rerouteNo="1" devices="tripinfo_veh72 routing_veh72" vType="veh_passenger" speedFactor="1.08" vaporized=""/>
    <tripinfo id="veh76" depart="303.00" departLane="88617178#0_0" departPos="5.10" departSpeed="13.02" departDelay="0.43" arrival="393.00" arrivalLane="-45050329#4_0" arrivalPos="613.15" arrivalSpeed="25.20" duration="90.00" routeLength="1245.03" waitingTime="7.00" waitingCount="1" stopTime="0.00" timeLoss="23.19" rerouteNo="1" devices="tripinfo_veh76 routing_veh76" vType="veh_passenger" speedFactor="0.94" vaporized=""/>
    <tripinfo id="veh81" depart="323.00" departLane="304618246#0_1" departPos="5.10" departSpeed="24.15" departDelay="0.52" arrival="394.00" arrivalLane="658526864#1_1" arrivalPos="107.08" arrivalSpeed="22.73" duration="71.00" routeLength="484.12" waitingTime="22.00" waitingCount="2" stopTime="0.00" timeLoss="52.39" rerouteNo="1" devices="tripinfo_veh81 routing_veh81" vType="veh_passenger" speedFactor="1.04" vaporized=""/>
    <tripinfo id="veh52" depart="208.00" departLane="-17213698#3_0" departPos="5.10" departSpeed="0.00" departDelay="0.98" arrival="404.00" arrivalLane="770925905#3_1" arrivalPos="5.31" arrivalSpeed="25.76" duration="196.00" routeLength="1536.39" waitingTime="83.00" waitingCount="2" stopTime="0.00" timeLoss="119.42" rerouteNo="1" devices="tripinfo_veh52 routing_veh52" vType="veh_passenger" speedFactor="0.96" vaporized=""/>
    <tripinfo id="veh56" depart="285.00" departLane="45050329#15_1" departPos="5.10" departSpeed="0.00" departDelay="62.05" arrival="406.00" arrivalLane="294561112#2_0" arrivalPos="16.01" arrivalSpeed="17.53" duration="121.00" routeLength="1209.93" waitingTime="33.00" waitingCount="2" stopTime="0.00" timeLoss="71.07" rerouteNo="2" devices="tripinfo_veh56 routing_veh56" vType="veh_passenger" speedFactor="1.09" vaporized=""/>
    <tripinfo id="veh73" depart="291.00" departLane="45204238#1_0" departPos="5.10" departSpeed="0.00" departDelay="0.37" arrival="410.00" arrivalLane="294443279#1_0" arrivalPos="60.57" arrivalSpeed="16.45" duration="119.00" routeLength="1122.17" waitingTime="28.00" waitingCount="3" stopTime="0.00" timeLoss="81.26" rerouteNo="1" devices="tripinfo_veh73 routing_veh73" vType="veh_passenger" speedFactor="1.12" vaporized=""/>
    <tripinfo id="veh96" depart="383.00" departLane="37114305#3_0" departPos="0.20" departSpeed="0.00" departDelay="0.80" arrival="411.00" arrivalLane="37136833#3_0" arrivalPos="142.42" arrivalSpeed="27.31" duration="28.00" routeLength="363.79" waitingTime="1.00" waitingCount="1" stopTime="0.00" timeLoss="14.52" rerouteNo="1" devices="tripinfo_veh96 routing_veh96" vType="veh_passenger" speedFactor="1.00" vaporized=""/>
    <tripinfo id="veh33" depart="132.00" departLane="45050329#7_1" departPos="5.10" departSpeed="0.00" departDelay="0.62" arrival="427.00" arrivalLane="-292256999#2_0" arrivalPos="68.46" arrivalSpeed="18.66" duration="295.00" routeLength="1001.93" waitingTime="187.00" waitingCount="5" stopTime="0.00" timeLoss="247.42" rerouteNo="1" devices="tripinfo_veh33 routing_veh33" vType="veh_passenger" speedFactor="0.93" vaporized=""/>
    <tripinfo id="veh78" depart="311.00" departLane="518910434#0-AddedOnRampEdge_1" departPos="5.10" departSpeed="24.51" departDelay="0.47" arrival="427.00" arrivalLane="17205222#6_1" arrivalPos="7.04" arrivalSpeed="19.31" duration="116.00" routeLength="571.54" waitingTime="79.00" waitingCount="1" stopTime="0.00" timeLoss="90.27" rerouteNo="1" devices="tripinfo_veh78 routing_veh78" vType="veh_passenger" speedFactor="0.88" vaporized=""/>
    <tripinfo id="veh93" depart="371.00" departLane="-37052092#5_0" departPos="5.10" departSpeed="15.10" departDelay="0.75" arrival="428.00" arrivalLane="-37052092#0_0" arrivalPos="139.46" arrivalSpeed="13.95" duration="57.00" routeLength="812.43" waitingTime="0.00" waitingCount="0" stopTime="0.00" timeLoss="2.72" rerouteNo="1" devices="tripinfo_veh93 routing_veh93" vType="veh_passenger" speedFactor="1.09" vaporized=""/>
    <tripinfo id="veh80" depart="319.00" departLane="304618246#0_0" departPos="5.10" departSpeed="25.41" departDelay="0.50" arrival="429.00" arrivalLane="17205735#2_1" arrivalPos="7.74" arrivalSpeed="18.72" duration="110.00" routeLength="979.77" waitingTime="25.00" waitingCount="2" stopTime="0.00" timeLoss="69.84" rerouteNo="1" devices="tripinfo_veh80 routing_veh80" vType="veh_passenger" speedFactor="0.91" vaporized=""/>
    <tripinfo id="veh79" depart="315.00" departLane="17205222#0_0" departPos="5.10" departSpeed="0.00" departDelay="0.48" arrival="434.00" arrivalLane="294561112#14_1" arrivalPos="11.63" arrivalSpeed="17.62" duration="119.00" routeLength="1067.76" waitingTime="11.00" waitingCount="4" stopTime="0.00" timeLoss="69.03" rerouteNo="1" devices="tripinfo_veh79 routing_veh79" vType="veh_passenger" speedFactor="0.91" vaporized=""/>
    <tripinfo id="veh88" depart="351.00" departLane="304618246#0_0" departPos="5.10" departSpeed="25.57" departDelay="0.65" arrival="440.00" arrivalLane="25593473#0_0" arrivalPos="141.15" arrivalSpeed="24.94" duration="89.00" routeLength="922.19" waitingTime="22.00" waitingCount="2" stopTime="0.00" timeLoss="46.85" rerouteNo="1" devices="tripinfo_veh88 routing_veh88" vType="veh_passenger" speedFactor="0.96" vaporized=""/>
    <tripinfo id="veh64" depart="255.00" departLane="249305447#0_1" departPos="5.10" departSpeed="30.33" departDelay="0.20" arrival="444.00" arrivalLane="37052092#3_0" arrivalPos="33.34" arrivalSpeed="15.00" duration="189.00" routeLength="1546.10" waitingTime="62.00" waitingCount="5" stopTime="0.00" timeLoss="125.74" rerouteNo="1" devices="tripinfo_veh64 routing_veh64" vType="veh_passenger" speedFactor="1.10" vaporized=""/>
    <tripinfo id="veh51" depart="204.00" departLane="-1057713529#0_1" departPos="5.10" departSpeed="0.00" departDelay="0.96" arrival="454.00" arrivalLane="17213444#1_0" arrivalPos="132.58" arrivalSpeed="28.32" duration="250.00" routeLength="1078.61" waitingTime="153.00" waitingCount="5" stopTime="0.00" timeLoss="205.16" rerouteNo="1" devices="tripinfo_veh51 routing_veh51" vType="veh_passenger" speedFactor="1.03" vaporized=""/>
    <tripinfo id="veh70" depart="279.00" departLane="658526876#3_0" departPos="5.10" departSpeed="0.00" departDelay="0.32" arrival="457.00" arrivalLane="37051419#5_0" arrivalPos="56.72" arrivalSpeed="12.53" duration="178.00" routeLength="1134.37" waitingTime="61.00" waitingCount="3" stopTime="0.00" timeLoss="113.08" rerouteNo="1" devices="tripinfo_veh70 routing_veh70" vType="veh_passenger" speedFactor="0.97" vaporized=""/>
    <tripinfo id="veh92" depart="367.00" departLane="37051824#0_1" departPos="5.10" departSpeed="27.98" departDelay="0.73" arrival="469.00" arrivalLane="39606271#4_0" arrivalPos="36.44" arrivalSpeed="12.62" duration="102.00" routeLength="1040.94" waitingTime="27.00" waitingCount="1" stopTime="0.00" timeLoss="54.58" rerouteNo="1" devices="tripinfo_veh92 routing_veh92" vType="veh_passenger" speedFactor="1.01" vaporized=""/>
    <tripinfo id="veh38" depart="152.00" departLane="-770925915#2_0" departPos="5.10" departSpeed="0.00" departDelay="0.71" arrival="473.00" arrivalLane="658526864#1_1" arrivalPos="107.08" arrivalSpeed="20.05" duration="321.00" routeLength="1512.98" waitingTime="188.00" waitingCount="6" stopTime="0.00" timeLoss="270.40" rerouteNo="1" devices="tripinfo_veh38 routing_veh38" vType="veh_passenger" speedFactor="1.17" vaporized=""/>
    <tripinfo id="veh42" depart="168.00" departLane="-770925915#2_0" departPos="5.10" departSpeed="0.00" departDelay="0.79" arrival="474.00" arrivalLane="294443279#3_1" arrivalPos="14.94" arrivalSpeed="26.29" duration="306.00" routeLength="1542.00" waitingTime="174.00" waitingCount="3" stopTime="0.00" timeLoss="245.10" rerouteNo="1" devices="tripinfo_veh42 routing_veh42" vType="veh_passenger" speedFactor="0.97" vaporized=""/>
    <tripinfo id="veh23" depart="227.00" departLane="1057713533#1_0" departPos="0.20" departSpeed="0.00" departDelay="135.43" arrival="479.00" arrivalLane="17221307#1_0" arrivalPos="156.41" arrivalSpeed="15.34" duration="252.00" routeLength="1063.28" waitingTime="162.00" waitingCount="3" stopTime="0.00" timeLoss="210.50" rerouteNo="1" devices="tripinfo_veh23 routing_veh23" vType="veh_passenger" speedFactor="1.16" vaporized=""/>
    <tripinfo id="veh113" depart="450.00" departLane="-770925915#6_1" departPos="5.10" departSpeed="31.16" departDelay="0.12" arrival="482.00" arrivalLane="-518910430#2_0" arrivalPos="31.29" arrivalSpeed="15.28" duration="32.00" routeLength="518.31" waitingTime="0.00" waitingCount="0" stopTime="0.00" timeLoss="8.39" rerouteNo="1" devices="tripinfo_veh113 routing_veh113" vType="veh_passenger" speedFactor="1.12" vaporized=""/>
    <tripinfo id="veh105" depart="419.00" departLane="37113369#3_0" departPos="5.10" departSpeed="0.00" departDelay="0.97" arrival="494.00" arrivalLane="294561112#18_0" arrivalPos="2.07" arrivalSpeed="7.79" duration="75.00" routeLength="506.27" waitingTime="22.00" waitingCount="2" stopTime="0.00" timeLoss="53.51" rerouteNo="1" devices="tripinfo_veh105 routing_veh105" vType="veh_passenger" speedFactor="1.02" vaporized=""/>