<?xml version="1.0" encoding="UTF-8"?>

<!-- generated on 2023-12-18 17:48:20 by Eclipse SUMO GUI Version 1.19.0
<configuration xmlns:xsi="http://www.w3.org/2001/XMLSchema-instance" xsi:noNamespaceSchemaLocation="http://sumo.dlr.de/xsd/sumoConfiguration.xsd">

    <input>
        <net-file value="newhaven-10-50/osm.net.xml.gz"/>
        <route-files value="newhaven-10-50/osm.passenger.trips.xml"/>
        <additional-files value="newhaven-10-50/osm.poly.xml.gz"/>
    </input>

    <output>
        <tripinfo-output value="newhaven-10-50/tripinfo.xml"/>
    </output>

    <processing>
        <ignore-route-errors value="true"/>
    </processing>

    <routing>
        <device.rerouting.adaptation-steps value="18"/>
        <device.rerouting.adaptation-interval value="10"/>
    </routing>

    <report>
        <verbose value="true"/>
        <duration-log.statistics value="true"/>
        <no-step-log value="true"/>
    </report>

    <traci_server>
        <remote-port value="57537"/>
    </traci_server>

    <gui_only>
        <gui-settings-file value="newhaven-10-50/osm.view.xml"/>
    </gui_only>

</configuration>
-->

<tripinfos xmlns:xsi="http://www.w3.org/2001/XMLSchema-instance" xsi:noNamespaceSchemaLocation="http://sumo.dlr.de/xsd/tripinfo_file.xsd">
    <tripinfo id="veh0" depart="0.00" departLane="37051824#2_0" departPos="5.10" departSpeed="0.00" departDelay="0.00" arrival="126.00" arrivalLane="-17209803#3_0" arrivalPos="42.00" arrivalSpeed="13.81" duration="126.00" routeLength="811.90" waitingTime="60.00" waitingCount="2" stopTime="0.00" timeLoss="94.57" rerouteNo="1" devices="tripinfo_veh0 routing_veh0" vType="veh_passenger" speedFactor="1.06" vaporized=""/>
    <tripinfo id="veh60" depart="74.00" departLane="-132400906#1_1" departPos="5.10" departSpeed="0.00" departDelay="0.72" arrival="131.00" arrivalLane="658581209#0_0" arrivalPos="5.61" arrivalSpeed="8.89" duration="57.00" routeLength="637.63" waitingTime="4.00" waitingCount="1" stopTime="0.00" timeLoss="20.49" rerouteNo="1" devices="tripinfo_veh60 routing_veh60" vType="veh_passenger" speedFactor="0.90" vaporized=""/>
    <tripinfo id="veh5" depart="7.00" departLane="-168728317#1_0" departPos="5.10" departSpeed="14.31" departDelay="0.89" arrival="132.00" arrivalLane="132400906#1_0" arrivalPos="93.45" arrivalSpeed="27.64" duration="125.00" routeLength="1260.62" waitingTime="47.00" waitingCount="2" stopTime="0.00" timeLoss="71.46" rerouteNo="1" devices="tripinfo_veh5 routing_veh5" vType="veh_passenger" speedFactor="1.03" vaporized=""/>
    <tripinfo id="veh11" depart="14.00" departLane="658581086#1_1" departPos="5.10" departSpeed="0.00" departDelay="0.57" arrival="147.00" arrivalLane="17218405#5_0" arrivalPos="4.25" arrivalSpeed="14.24" duration="133.00" routeLength="895.92" waitingTime="51.00" waitingCount="3" stopTime="0.00" timeLoss="92.67" rerouteNo="1" devices="tripinfo_veh11 routing_veh11" vType="veh_passenger" speedFactor="1.09" vaporized=""/>
    <tripinfo id="veh4" depart="5.00" departLane="1106807198#1_1" departPos="5.10" departSpeed="0.00" departDelay="0.11" arrival="148.00" arrivalLane="271363702#1_0" arrivalPos="46.75" arrivalSpeed="17.05" duration="143.00" routeLength="611.92" waitingTime="89.00" waitingCount="2" stopTime="0.00" timeLoss="118.86" rerouteNo="1" devices="tripinfo_veh4 routing_veh4" vType="veh_passenger" speedFactor="1.08" vaporized=""/>
    <tripinfo id="veh21" depart="26.00" departLane="-263453002#1_0" departPos="5.10" departSpeed="16.09" departDelay="0.35" arrival="150.00" arrivalLane="168728317#1_0" arrivalPos="202.17" arrivalSpeed="15.53" duration="124.00" routeLength="962.58" waitingTime="55.00" waitingCount="1" stopTime="0.00" timeLoss="74.27" rerouteNo="1" devices="tripinfo_veh21 routing_veh21" vType="veh_passenger" speedFactor="1.16" vaporized=""/>
    <tripinfo id="veh22" depart="27.00" departLane="37051973#6_1" departPos="5.10" departSpeed="0.00" departDelay="0.13" arrival="155.00" arrivalLane="17205735#2_0" arrivalPos="7.74" arrivalSpeed="28.23" duration="128.00" routeLength="924.42" waitingTime="54.00" waitingCount="3" stopTime="0.00" timeLoss="92.16" rerouteNo="1" devices="tripinfo_veh22 routing_veh22" vType="veh_passenger" speedFactor="1.02" vaporized=""/>
    <tripinfo id="veh29" depart="36.00" departLane="889425358#1_2" departPos="5.10" departSpeed="0.00" departDelay="0.58" arrival="158.00" arrivalLane="37051419#5_0" arrivalPos="52.06" arrivalSpeed="12.68" duration="122.00" routeLength="683.13" waitingTime="52.00" waitingCount="2" stopTime="0.00" timeLoss="77.38" rerouteNo="1" devices="tripinfo_veh29 routing_veh29" vType="veh_passenger" speedFactor="0.95" vaporized=""/>
    <tripinfo id="veh90" depart="110.00" departLane="17227712#0_0" departPos="5.10" departSpeed="13.56" departDelay="0.08" arrival="168.00" arrivalLane="52095236#4_0" arrivalPos="179.42" arrivalSpeed="21.33" duration="58.00" routeLength="894.60" waitingTime="0.00" waitingCount="0" stopTime="0.00" timeLoss="5.18" rerouteNo="1" devices="tripinfo_veh90 routing_veh90" vType="veh_passenger" speedFactor="0.98" vaporized=""/>
    <tripinfo id="veh49" depart="60.00" departLane="132400957#0_0" departPos="5.10" departSpeed="30.22" departDelay="0.15" arrival="183.00" arrivalLane="37051823#1_0" arrivalPos="249.05" arrivalSpeed="5.09" duration="123.00" routeLength="1044.54" waitingTime="53.00" waitingCount="3" stopTime="0.00" timeLoss="88.44" rerouteNo="1" devices="tripinfo_veh49 routing_veh49" vType="veh_passenger" speedFactor="1.09" vaporized=""/>
    <tripinfo id="veh23" depart="29.00" departLane="-37051823#1_0" departPos="5.10" departSpeed="0.00" departDelay="0.91" arrival="185.00" arrivalLane="17221804#3_0" arrivalPos="261.55" arrivalSpeed="13.86" duration="156.00" routeLength="1380.32" waitingTime="41.00" waitingCount="4" stopTime="0.00" timeLoss="90.91" rerouteNo="1" devices="tripinfo_veh23 routing_veh23" vType="veh_passenger" speedFactor="1.01" vaporized=""/>
    <tripinfo id="veh18" depart="22.00" departLane="45090429#5_1" departPos="5.10" departSpeed="0.00" departDelay="0.02" arrival="186.00" arrivalLane="304618246#3_0" arrivalPos="28.29" arrivalSpeed="11.13" duration="164.00" routeLength="602.95" waitingTime="85.00" waitingCount="4" stopTime="0.00" timeLoss="118.67" rerouteNo="1" devices="tripinfo_veh18 routing_veh18" vType="veh_passenger" speedFactor="0.88" vaporized=""/>
    <tripinfo id="veh77" depart="95.00" departLane="132400907#2_0" departPos="5.10" departSpeed="0.00" departDelay="0.96" arrival="191.00" arrivalLane="37052278_0" arrivalPos="130.64" arrivalSpeed="22.85" duration="96.00" routeLength="748.31" waitingTime="23.00" waitingCount="2" stopTime="0.00" timeLoss="60.69" rerouteNo="1" devices="tripinfo_veh77 routing_veh77" vType="veh_passenger" speedFactor="1.06" vaporized=""/>
    <tripinfo id="veh40" depart="49.00" departLane="987561406#0_0" departPos="5.10" departSpeed="0.00" departDelay="0.15" arrival="192.00" arrivalLane="28866897#1_0" arrivalPos="17.46" arrivalSpeed="11.48" duration="143.00" routeLength="726.16" waitingTime="71.00" waitingCount="3" stopTime="0.00" timeLoss="101.04" rerouteNo="1" devices="tripinfo_veh40 routing_veh40" vType="veh_passenger" speedFactor="0.97" vaporized=""/>
    <tripinfo id="veh3" depart="4.00" departLane="17225655#0_0" departPos="5.10" departSpeed="28.07" departDelay="0.34" arrival="193.00" arrivalLane="-17212629#1_0" arrivalPos="67.19" arrivalSpeed="21.89" duration="189.00" routeLength="986.41" waitingTime="109.00" waitingCount="4" stopTime="0.00" timeLoss="150.30" rerouteNo="1" devices="tripinfo_veh3 routing_veh3" vType="veh_passenger" speedFactor="1.01" vaporized=""/>
    <tripinfo id="veh73" depart="90.00" departLane="17213444#1_2" departPos="5.10" departSpeed="0.00" departDelay="0.84" arrival="193.00" arrivalLane="340328042#2_0" arrivalPos="12.97" arrivalSpeed="27.68" duration="103.00" routeLength="858.20" waitingTime="48.00" waitingCount="1" stopTime="0.00" timeLoss="69.78" rerouteNo="1" devices="tripinfo_veh73 routing_veh73" vType="veh_passenger" speedFactor="1.02" vaporized=""/>
    <tripinfo id="veh72" depart="88.00" departLane="-37052278_0" departPos="5.10" departSpeed="28.89" departDelay="0.06" arrival="195.00" arrivalLane="132400966#1_0" arrivalPos="53.16" arrivalSpeed="28.49" duration="107.00" routeLength="730.37" waitingTime="70.00" waitingCount="1" stopTime="0.00" timeLoss="80.98" rerouteNo="1" devices="tripinfo_veh72 routing_veh72" vType="veh_passenger" speedFactor="1.04" vaporized=""/>
    <tripinfo id="veh98" depart="120.00" departLane="186873193_1" departPos="5.10" departSpeed="0.00" departDelay="0.31" arrival="204.00" arrivalLane="23322421#1_0" arrivalPos="90.87" arrivalSpeed="23.10" duration="84.00" routeLength="442.08" waitingTime="32.00" waitingCount="2" stopTime="0.00" timeLoss="50.18" rerouteNo="1" devices="tripinfo_veh98 routing_veh98" vType="veh_passenger" speedFactor="0.92" vaporized=""/>
    <tripinfo id="veh8" depart="10.00" departLane="39435612#1_0" departPos="5.10" departSpeed="0.00" departDelay="0.23" arrival="215.00" arrivalLane="-1087754476#1_1" arrivalPos="56.27" arrivalSpeed="6.64" duration="205.00" routeLength="901.05" waitingTime="108.00" waitingCount="5" stopTime="0.00" timeLoss="166.18" rerouteNo="1" devices="tripinfo_veh8 routing_veh8" vType="veh_passenger" speedFactor="0.89" vaporized=""/>
    <tripinfo id="veh24" depart="30.00" departLane="17218405#5_0" departPos="4.25" departSpeed="0.00" departDelay="0.69" arrival="215.00" arrivalLane="132400907#5_0" arrivalPos="16.01" arrivalSpeed="26.83" duration="185.00" routeLength="1238.41" waitingTime="76.00" waitingCount="3" stopTime="0.00" timeLoss="122.29" rerouteNo="1" devices="tripinfo_veh24 routing_veh24" vType="veh_passenger" speedFactor="0.97" vaporized=""/>
    <tripinfo id="veh101" depart="125.00" departLane="658581240#0_2" departPos="5.10" departSpeed="0.00" departDelay="1.64" arrival="216.00" arrivalLane="304618246#4_0" arrivalPos="31.83" arrivalSpeed="17.17" duration="91.00" routeLength="483.12" waitingTime="38.00" waitingCount="1" stopTime="0.00" timeLoss="51.45" rerouteNo="1" devices="tripinfo_veh101 routing_veh101" vType="veh_passenger" speedFactor="1.01" vaporized=""/>
    <tripinfo id="veh97" depart="119.00" departLane="132400957#0_0" departPos="5.10" departSpeed="23.16" departDelay="0.53" arrival="218.00" arrivalLane="39362439#3_0" arrivalPos="23.73" arrivalSpeed="20.83" duration="99.00" routeLength="622.39" waitingTime="49.00" waitingCount="2" stopTime="0.00" timeLoss="66.48" rerouteNo="1" devices="tripinfo_veh97 routing_veh97" vType="veh_passenger" speedFactor="0.83" vaporized=""/>
    <tripinfo id="veh67" depart="82.00" departLane="17225655#0_1" departPos="5.10" departSpeed="27.42" departDelay="0.17" arrival="219.00" arrivalLane="132400907#6_0" arrivalPos="7.38" arrivalSpeed="26.67" duration="137.00" routeLength="1060.98" waitingTime="71.00" waitingCount="2" stopTime="0.00" timeLoss="95.41" rerouteNo="1" devices="tripinfo_veh67 routing_veh67" vType="veh_passenger" speedFactor="0.99" vaporized=""/>
    <tripinfo id="veh36" depart="44.00" departLane="132400957#0_0" departPos="5.10" departSpeed="27.64" departDelay="0.03" arrival="228.00" arrivalLane="17202186_0" arrivalPos="157.38" arrivalSpeed="21.21" duration="184.00" routeLength="969.54" waitingTime="104.00" waitingCount="4" stopTime="0.00" timeLoss="143.45" rerouteNo="1" devices="tripinfo_veh36 routing_veh36" vType="veh_passenger" speedFactor="0.99" vaporized=""/>
    <tripinfo id="veh82" depart="101.00" departLane="17225655#0_1" departPos="5.10" departSpeed="27.98" departDelay="0.85" arrival="228.00" arrivalLane="249305446#1_0" arrivalPos="135.53" arrivalSpeed="5.24" duration="127.00" routeLength="940.74" waitingTime="59.00" waitingCount="3" stopTime="0.00" timeLoss="91.63" rerouteNo="1" devices="tripinfo_veh82 routing_veh82" vType="veh_passenger" speedFactor="1.01" vaporized=""/>
    <tripinfo id="veh129" depart="158.00" departLane="45050329#0_1" departPos="5.10" departSpeed="28.65" departDelay="0.45" arrival="231.00" arrivalLane="-37113369#4_0" arrivalPos="1.30" arrivalSpeed="10.76" duration="73.00" routeLength="1289.11" waitingTime="5.00" waitingCount="1" stopTime="0.00" timeLoss="26.31" rerouteNo="1" devices="tripinfo_veh129 routing_veh129" vType="veh_passenger" speedFactor="1.03" vaporized=""/>
    <tripinfo id="veh6" depart="8.00" departLane="37051973#8_1" departPos="5.10" departSpeed="0.00" departDelay="0.67" arrival="232.00" arrivalLane="294561112#1_0" arrivalPos="46.02" arrivalSpeed="15.74" duration="224.00" routeLength="1298.00" waitingTime="109.00" waitingCount="6" stopTime="0.00" timeLoss="163.28" rerouteNo="1" devices="tripinfo_veh6 routing_veh6" vType="veh_passenger" speedFactor="0.83" vaporized=""/>
    <tripinfo id="veh34" depart="42.00" departLane="37054455#2_0" departPos="5.10" departSpeed="0.00" departDelay="0.47" arrival="236.00" arrivalLane="17227246#1_1" arrivalPos="106.81" arrivalSpeed="20.47" duration="194.00" routeLength="914.23" waitingTime="103.00" waitingCount="4" stopTime="0.00" timeLoss="151.39" rerouteNo="1" devices="tripinfo_veh34 routing_veh34" vType="veh_passenger" speedFactor="1.01" vaporized=""/>
    <tripinfo id="veh16" depart="20.00" departLane="17219050#0_0" departPos="5.10" departSpeed="13.77" departDelay="0.46" arrival="237.00" arrivalLane="294561112#16_0" arrivalPos="20.38" arrivalSpeed="21.99" duration="217.00" routeLength="1295.28" waitingTime="98.00" waitingCount="5" stopTime="0.00" timeLoss="146.28" rerouteNo="1" devices="tripinfo_veh16 routing_veh16" vType="veh_passenger" speedFactor="0.99" vaporized=""/>
    <tripinfo id="veh61" depart="75.00" departLane="45683096#4_2" departPos="5.10" departSpeed="0.00" departDelay="0.50" arrival="238.00" arrivalLane="45090429#4_1" arrivalPos="46.89" arrivalSpeed="24.12" duration="163.00" routeLength="878.12" waitingTime="75.00" waitingCount="3" stopTime="0.00" timeLoss="114.60" rerouteNo="1" devices="tripinfo_veh61 routing_veh61" vType="veh_passenger" speedFactor="1.14" vaporized=""/>
    <tripinfo id="veh25" depart="31.00" departLane="132400957#0_0" departPos="5.10" departSpeed="24.71" departDelay="0.47" arrival="248.00" arrivalLane="658581240#2_0" arrivalPos="25.26" arrivalSpeed="9.34" duration="217.00" routeLength="1707.41" waitingTime="91.00" waitingCount="4" stopTime="0.00" timeLoss="139.00" rerouteNo="1" devices="tripinfo_veh25 routing_veh25" vType="veh_passenger" speedFactor="0.89" vaporized=""/>
    <tripinfo id="veh171" depart="209.00" departLane="37136834#3_0" departPos="5.10" departSpeed="0.00" departDelay="0.15" arrival="250.00" arrivalLane="17212141#1_2" arrivalPos="13.03" arrivalSpeed="23.34" duration="41.00" routeLength="324.34" waitingTime="7.00" waitingCount="1" stopTime="0.00" timeLoss="28.94" rerouteNo="1" devices="tripinfo_veh171 routing_veh171" vType="veh_passenger" speedFactor="0.99" vaporized=""/>
    <tripinfo id="veh142" depart="174.00" departLane="39362439#4_0" departPos="5.10" departSpeed="0.00" departDelay="0.57" arrival="252.00" arrivalLane="656618859#1_2" arrivalPos="107.93" arrivalSpeed="23.37" duration="78.00" routeLength="924.42" waitingTime="16.00" waitingCount="2" stopTime="0.00" timeLoss="42.24" rerouteNo="1" devices="tripinfo_veh142 routing_veh142" vType="veh_passenger" speedFactor="1.01" vaporized=""/>
    <tripinfo id="veh113" depart="139.00" departLane="37114303#2_0" departPos="5.10" departSpeed="0.00" departDelay="0.99" arrival="257.00" arrivalLane="17212141#1_2" arrivalPos="13.03" arrivalSpeed="21.67" duration="118.00" routeLength="1243.41" waitingTime="27.00" waitingCount="2" stopTime="0.00" timeLoss="73.08" rerouteNo="1" devices="tripinfo_veh113 routing_veh113" vType="veh_passenger" speedFactor="1.03" vaporized=""/>
    <tripinfo id="veh182" depart="223.00" departLane="39435491#0_0" departPos="5.10" departSpeed="25.38" departDelay="0.71" arrival="260.00" arrivalLane="1097215715#4_0" arrivalPos="366.97" arrivalSpeed="31.12" duration="37.00" routeLength="682.20" waitingTime="1.00" waitingCount="1" stopTime="0.00" timeLoss="11.87" rerouteNo="1" devices="tripinfo_veh182 routing_veh182" vType="veh_passenger" speedFactor="1.14" vaporized=""/>
    <tripinfo id="veh195" depart="239.00" departLane="-770925915#4_0" departPos="5.10" departSpeed="29.97" departDelay="0.84" arrival="267.00" arrivalLane="770925905#2_0" arrivalPos="103.31" arrivalSpeed="22.66" duration="28.00" routeLength="598.26" waitingTime="0.00" waitingCount="0" stopTime="0.00" timeLoss="6.16" rerouteNo="1" devices="tripinfo_veh195 routing_veh195" vType="veh_passenger" speedFactor="1.08" vaporized=""/>
    <tripinfo id="veh89" depart="109.00" departLane="132400907#7_0" departPos="5.10" departSpeed="0.00" departDelay="0.30" arrival="269.00" arrivalLane="658581086#3_2" arrivalPos="5.60" arrivalSpeed="23.14" duration="160.00" routeLength="998.91" waitingTime="65.00" waitingCount="3" stopTime="0.00" timeLoss="120.86" rerouteNo="1" devices="tripinfo_veh89 routing_veh89" vType="veh_passenger" speedFactor="1.15" vaporized=""/>
    <tripinfo id="veh102" depart="125.00" departLane="293638419#2_1" departPos="5.10" departSpeed="0.00" departDelay="0.42" arrival="269.00" arrivalLane="37138017#3_0" arrivalPos="107.59" arrivalSpeed="24.36" duration="144.00" routeLength="1079.39" waitingTime="72.00" waitingCount="2" stopTime="0.00" timeLoss="96.35" rerouteNo="1" devices="tripinfo_veh102 routing_veh102" vType="veh_passenger" speedFactor="0.91" vaporized=""/>
    <tripinfo id="veh135" depart="165.00" departLane="624163581#0_2" departPos="5.10" departSpeed="12.50" departDelay="0.12" arrival="270.00" arrivalLane="294561112#10_1" arrivalPos="28.84" arrivalSpeed="21.81" duration="105.00" routeLength="642.95" waitingTime="38.00" waitingCount="3" stopTime="0.00" timeLoss="70.64" rerouteNo="1" devices="tripinfo_veh135 routing_veh135" vType="veh_passenger" speedFactor="1.12" vaporized=""/>
    <tripinfo id="veh99" depart="121.00" departLane="37136832#5_1" departPos="5.10" departSpeed="0.00" departDelay="0.09" arrival="274.00" arrivalLane="37114312#1_1" arrivalPos="24.74" arrivalSpeed="10.41" duration="153.00" routeLength="1053.96" waitingTime="68.00" waitingCount="3" stopTime="0.00" timeLoss="116.08" rerouteNo="1" devices="tripinfo_veh99 routing_veh99" vType="veh_passenger" speedFactor="1.09" vaporized=""/>
    <tripinfo id="veh45" depart="55.00" departLane="987561406#0_0" departPos="5.10" departSpeed="0.00" departDelay="0.04" arrival="276.00" arrivalLane="293638418#1_0" arrivalPos="15.03" arrivalSpeed="12.89" duration="221.00" routeLength="896.44" waitingTime="129.00" waitingCount="4" stopTime="0.00" timeLoss="174.11" rerouteNo="1" devices="tripinfo_veh45 routing_veh45" vType="veh_passenger" speedFactor="0.96" vaporized=""/>
    <tripinfo id="veh2" depart="3.00" departLane="-52095236#2_0" departPos="5.10" departSpeed="0.00" departDelay="0.56" arrival="277.00" arrivalLane="-37051973#8_1" arrivalPos="28.58" arrivalSpeed="13.94" duration="274.00" routeLength="1495.72" waitingTime="154.00" waitingCount="5" stopTime="0.00" timeLoss="211.51" rerouteNo="1" devices="tripinfo_veh2 routing_veh2" vType="veh_passenger" speedFactor="0.94" vaporized=""/>
    <tripinfo id="veh141" depart="173.00" departLane="132400907#7_0" departPos="5.10" departSpeed="0.00" departDelay="0.79" arrival="279.00" arrivalLane="-37914992#3_0" arrivalPos="23.70" arrivalSpeed="15.03" duration="106.00" routeLength="792.57" waitingTime="27.00" waitingCount="4" stopTime="0.00" timeLoss="77.25" rerouteNo="1" devices="tripinfo_veh141 routing_veh141" vType="veh_passenger" speedFactor="1.23" vaporized=""/>
    <tripinfo id="veh134" depart="164.00" departLane="-249305448#6_0" departPos="5.10" departSpeed="0.00" departDelay="0.34" arrival="281.00" arrivalLane="656618859#1_0" arrivalPos="107.93" arrivalSpeed="20.97" duration="117.00" routeLength="1075.43" waitingTime="26.00" waitingCount="3" stopTime="0.00" timeLoss="66.68" rerouteNo="1" devices="tripinfo_veh134 routing_veh134" vType="veh_passenger" speedFactor="0.82" vaporized=""/>
    <tripinfo id="veh146" depart="179.00" departLane="39494751#1_0" departPos="5.10" departSpeed="0.00" departDelay="0.68" arrival="281.00" arrivalLane="656618858#1_0" arrivalPos="110.66" arrivalSpeed="24.23" duration="102.00" routeLength="619.55" waitingTime="48.00" waitingCount="2" stopTime="0.00" timeLoss="76.53" rerouteNo="1" devices="tripinfo_veh146 routing_veh146" vType="veh_passenger" speedFactor="0.95" vaporized=""/>
    <tripinfo id="veh7" depart="9.00" departLane="1107046529#1_0" departPos="5.10" departSpeed="0.00" departDelay="0.45" arrival="284.00" arrivalLane="340328042#2_0" arrivalPos="12.97" arrivalSpeed="24.80" duration="275.00" routeLength="1380.98" waitingTime="164.00" waitingCount="4" stopTime="0.00" timeLoss="221.53" rerouteNo="1" devices="tripinfo_veh7 routing_veh7" vType="veh_passenger" speedFactor="1.05" vaporized=""/>
    <tripinfo id="veh35" depart="43.00" departLane="624163581#0_2" departPos="5.10" departSpeed="13.10" departDelay="0.25" arrival="284.00" arrivalLane="249270974#1_1" arrivalPos="139.99" arrivalSpeed="27.34" duration="241.00" routeLength="1384.58" waitingTime="142.00" waitingCount="3" stopTime="0.00" timeLoss="188.67" rerouteNo="1" devices="tripinfo_veh35 routing_veh35" vType="veh_passenger" speedFactor="1.17" vaporized=""/>
    <tripinfo id="veh114" depart="140.00" departLane="17207856#1_0" departPos="5.10" departSpeed="0.00" departDelay="0.77" arrival="286.00" arrivalLane="37138485#1_0" arrivalPos="102.34" arrivalSpeed="29.48" duration="146.00" routeLength="1281.02" waitingTime="46.00" waitingCount="3" stopTime="0.00" timeLoss="94.90" rerouteNo="1" devices="tripinfo_veh114 routing_veh114" vType="veh_passenger" speedFactor="1.06" vaporized=""/>
    <tripinfo id="veh148" depart="181.00" departLane="-17212141#2_0" departPos="5.10" departSpeed="0.00" departDelay="0.24" arrival="286.00" arrivalLane="658581240#0_0" arrivalPos="28.63" arrivalSpeed="12.32" duration="105.00" routeLength="428.18" waitingTime="53.00" waitingCount="2" stopTime="0.00" timeLoss="81.37" rerouteNo="1" devices="tripinfo_veh148 routing_veh148" vType="veh_passenger" speedFactor="1.16" vaporized=""/>
    <tripinfo id="veh192" depart="236.00" departLane="37054455#2_0" departPos="5.10" departSpeed="0.00" departDelay="1.50" arrival="288.00" arrivalLane="-1087754476#1_0" arrivalPos="56.27" arrivalSpeed="7.09" duration="52.00" routeLength="473.80" waitingTime="8.00" waitingCount="1" stopTime="0.00" timeLoss="34.92" rerouteNo="1" devices="tripinfo_veh192 routing_veh192" vType="veh_passenger" speedFactor="1.08" vaporized=""/>
    <tripinfo id="veh41" depart="51.00" departLane="292256998#2_0" departPos="5.10" departSpeed="0.00" departDelay="0.92" arrival="289.00" arrivalLane="-17219050#0_0" arrivalPos="120.82" arrivalSpeed="15.78" duration="238.00" routeLength="1611.54" waitingTime="102.00" waitingCount="6" stopTime="0.00" timeLoss="179.00" rerouteNo="1" devices="tripinfo_veh41 routing_veh41" vType="veh_passenger" speedFactor="1.18" vaporized=""/>
    <tripinfo id="veh39" depart="48.00" departLane="17224216#0_0" departPos="5.10" departSpeed="28.33" departDelay="0.37" arrival="292.00" arrivalLane="132400937#1_1" arrivalPos="20.53" arrivalSpeed="12.57" duration="244.00" routeLength="1467.04" waitingTime="127.00" waitingCount="4" stopTime="0.00" timeLoss="181.01" rerouteNo="1" devices="tripinfo_veh39 routing_veh39" vType="veh_passenger" speedFactor="1.02" vaporized=""/>
    <tripinfo id="veh112" depart="137.00" departLane="132400907#2_2" departPos="5.10" departSpeed="0.00" departDelay="0.21" arrival="293.00" arrivalLane="17227246#1_0" arrivalPos="106.81" arrivalSpeed="27.96" duration="156.00" routeLength="1168.06" waitingTime="62.00" waitingCount="3" stopTime="0.00" timeLoss="110.43" rerouteNo="1" devices="tripinfo_veh112 routing_veh112" vType="veh_passenger" speedFactor="1.01" vaporized=""/>
    <tripinfo id="veh19" depart="24.00" departLane="37136831#2_0" departPos="5.10" departSpeed="0.00" departDelay="0.79" arrival="295.00" arrivalLane="-17219050#0_0" arrivalPos="120.82" arrivalSpeed="12.83" duration="271.00" routeLength="1360.27" waitingTime="151.00" waitingCount="4" stopTime="0.00" timeLoss="206.37" rerouteNo="1" devices="tripinfo_veh19 routing_veh19" vType="veh_passenger" speedFactor="0.94" vaporized=""/>
    <tripinfo id="veh108" depart="132.00" departLane="132400907#1_0" departPos="5.10" departSpeed="0.00" departDelay="0.09" arrival="295.00" arrivalLane="-39360681#0_0" arrivalPos="19.11" arrivalSpeed="15.78" duration="163.00" routeLength="614.92" waitingTime="87.00" waitingCount="4" stopTime="0.00" timeLoss="130.70" rerouteNo="1" devices="tripinfo_veh108 routing_veh108" vType="veh_passenger" speedFactor="0.95" vaporized=""/>
    <tripinfo id="veh58" depart="71.00" departLane="39362439#3_2" departPos="5.10" departSpeed="0.00" departDelay="0.16" arrival="299.00" arrivalLane="293638418#2_1" arrivalPos="24.57" arrivalSpeed="14.33" duration="228.00" routeLength="1162.41" waitingTime="117.00" waitingCount="6" stopTime="0.00" timeLoss="182.67" rerouteNo="1" devices="tripinfo_veh58 routing_veh58" vType="veh_passenger" speedFactor="1.00" vaporized=""/>
    <tripinfo id="veh164" depart="201.00" departLane="132400922#1_0" departPos="5.10" departSpeed="0.00" departDelay="0.70" arrival="300.00" arrivalLane="37114310#2_0" arrivalPos="7.05" arrivalSpeed="18.55" duration="99.00" routeLength="615.11" waitingTime="38.00" waitingCount="3" stopTime="0.00" timeLoss="79.39" rerouteNo="1" devices="tripinfo_veh164 routing_veh164" vType="veh_passenger" speedFactor="1.18" vaporized=""/>
    <tripinfo id="veh110" depart="135.00" departLane="17225655#0_1" departPos="5.10" departSpeed="24.83" departDelay="0.65" arrival="301.00" arrivalLane="306461344#9_0" arrivalPos="126.60" arrivalSpeed="11.59" duration="166.00" routeLength="1370.95" waitingTime="56.00" waitingCount="3" stopTime="0.00" timeLoss="96.54" rerouteNo="1" devices="tripinfo_veh110 routing_veh110" vType="veh_passenger" speedFactor="0.89" vaporized=""/>
    <tripinfo id="veh188" depart="230.00" departLane="132400907#5_0" departPos="5.10" departSpeed="0.00" departDelay="0.39" arrival="303.00" arrivalLane="249305448#5_0" arrivalPos="46.38" arrivalSpeed="29.53" duration="73.00" routeLength="602.13" waitingTime="30.00" waitingCount="1" stopTime="0.00" timeLoss="45.88" rerouteNo="1" devices="tripinfo_veh188 routing_veh188" vType="veh_passenger" speedFactor="1.06" vaporized=""/>
    <tripinfo id="veh28" depart="35.00" departLane="-770925909_0" departPos="5.10" departSpeed="25.48" departDelay="0.80" arrival="305.00" arrivalLane="17224420#5_0" arrivalPos="11.50" arrivalSpeed="12.73" duration="270.00" routeLength="1707.44" waitingTime="136.00" waitingCount="5" stopTime="0.00" timeLoss="187.01" rerouteNo="1" devices="tripinfo_veh28 routing_veh28" vType="veh_passenger" speedFactor="0.92" vaporized=""/>
    <tripinfo id="veh123" depart="151.00" departLane="-37138485#1_0" departPos="5.10" departSpeed="0.00" departDelay="0.77" arrival="306.00" arrivalLane="-39276274#1_0" arrivalPos="281.66" arrivalSpeed="32.66" duration="155.00" routeLength="1393.98" waitingTime="66.00" waitingCount="2" stopTime="0.00" timeLoss="104.82" rerouteNo="1" devices="tripinfo_veh123 routing_veh123" vType="veh_passenger" speedFactor="1.18" vaporized=""/>
    <tripinfo id="veh71" depart="87.00" departLane="17227712#0_0" departPos="5.10" departSpeed="12.70" departDelay="0.28" arrival="309.00" arrivalLane="292256996#3_0" arrivalPos="46.39" arrivalSpeed="24.95" duration="222.00" routeLength="1646.62" waitingTime="95.00" waitingCount="3" stopTime="0.00" timeLoss="135.92" rerouteNo="1" devices="tripinfo_veh71 routing_veh71" vType="veh_passenger" speedFactor="0.91" vaporized=""/>
    <tripinfo id="veh32" depart="40.00" departLane="-1087754476#0_0" departPos="0.39" departSpeed="0.00" departDelay="0.92" arrival="310.00" arrivalLane="770925904#2_0" arrivalPos="22.54" arrivalSpeed="22.95" duration="270.00" routeLength="1632.09" waitingTime="153.00" waitingCount="4" stopTime="0.00" timeLoss="216.15" rerouteNo="1" devices="tripinfo_veh32 routing_veh32" vType="veh_passenger" speedFactor="1.18" vaporized=""/>
    <tripinfo id="veh44" depart="54.00" departLane="-17226392#4_0" departPos="5.10" departSpeed="0.00" departDelay="0.26" arrival="311.00" arrivalLane="17226088#0_0" arrivalPos="1.29" arrivalSpeed="5.63" duration="257.00" routeLength="1645.17" waitingTime="117.00" waitingCount="4" stopTime="0.00" timeLoss="184.40" rerouteNo="1" devices="tripinfo_veh44 routing_veh44" vType="veh_passenger" speedFactor="1.03" vaporized=""/>
    <tripinfo id="veh100" depart="123.00" departLane="-52095236#5_0" departPos="5.10" departSpeed="23.48" departDelay="0.86" arrival="311.00" arrivalLane="-17210867#1_1" arrivalPos="108.20" arrivalSpeed="23.90" duration="188.00" routeLength="1197.97" waitingTime="90.00" waitingCount="4" stopTime="0.00" timeLoss="139.76" rerouteNo="1" devices="tripinfo_veh100 routing_veh100" vType="veh_passenger" speedFactor="1.06" vaporized=""/>
    <tripinfo id="veh147" depart="180.00" departLane="-168728317#1_0" departPos="5.10" departSpeed="15.47" departDelay="0.46" arrival="312.00" arrivalLane="37136834#2_1" arrivalPos="5.02" arrivalSpeed="16.51" duration="132.00" routeLength="1332.21" waitingTime="53.00" waitingCount="2" stopTime="0.00" timeLoss="80.52" rerouteNo="1" devices="tripinfo_veh147 routing_veh147" vType="veh_passenger" speedFactor="1.11" vaporized=""/>
    <tripinfo id="veh31" depart="38.00" departLane="1126776173#1_0" departPos="5.10" departSpeed="0.00" departDelay="0.14" arrival="313.00" arrivalLane="17212629#8_0" arrivalPos="81.10" arrivalSpeed="19.74" duration="275.00" routeLength="1089.79" waitingTime="179.00" waitingCount="4" stopTime="0.00" timeLoss="221.67" rerouteNo="1" devices="tripinfo_veh31 routing_veh31" vType="veh_passenger" speedFactor="0.93" vaporized=""/>